 Q-Chem 5.4, Q-Chem, Inc., Pleasanton, CA (2021)
 Q-Chem 5.4.0 for Intel X86 EM64T Linux

User input:
--------------------------------------------------------------
$molecule
0 1
C	0.248806	-3.887800	-0.680396
C	-0.225147	-3.701456	0.621614
C	-0.370780	-2.345170	1.019896
H	-0.466300	-4.545233	1.285337
C	0.000000	-1.450135	0.000000
S	0.522786	-2.321334	-1.435271
C	-0.865597	-1.934439	2.378891
H	-1.092567	-2.819799	3.003720
H	-1.791940	-1.326210	2.313975
H	-0.114772	-1.325374	2.924390
H	0.448750	-4.815326	-1.228514
C	0.000000	0.000000	0.000000
C	0.354153	0.766774	1.113020
C	0.937751	2.029404	0.820578
H	0.191350	0.414475	2.142881
C	1.042030	2.254581	-0.563588
S	0.406851	0.881228	-1.464748
C	1.384426	2.995779	1.882380
H	1.196413	2.589194	2.894974
H	0.849641	3.965707	1.808137
H	2.469756	3.216753	1.808230
H	1.443919	3.124243	-1.097114
$end

$rem
JOBTYPE		SP
EXCHANGE	HF
CORRELATION	pRIMP2
BASIS		cc-pvtz
METHOD		rimp2
AUX_BASIS	rimp2-cc-pvtz
SOLVENT_METHOD	PCM
PURECART	11111
SYMMETRY	false
MEM_TOTAL	110000
SCF_CONVERGENCE = 6
THRESH=10
GUI = 2
$end

$solvent
dielectric 4.90
$end
--------------------------------------------------------------

             Standard Nuclear Orientation (Angstroms)
    I     Atom           X                Y                Z
 ----------------------------------------------------------------
    1      C       0.2488060000    -3.8878000000    -0.6803960000
    2      C      -0.2251470000    -3.7014560000     0.6216140000
    3      C      -0.3707800000    -2.3451700000     1.0198960000
    4      H      -0.4663000000    -4.5452330000     1.2853370000
    5      C       0.0000000000    -1.4501350000     0.0000000000
    6      S       0.5227860000    -2.3213340000    -1.4352710000
    7      C      -0.8655970000    -1.9344390000     2.3788910000
    8      H      -1.0925670000    -2.8197990000     3.0037200000
    9      H      -1.7919400000    -1.3262100000     2.3139750000
   10      H      -0.1147720000    -1.3253740000     2.9243900000
   11      H       0.4487500000    -4.8153260000    -1.2285140000
   12      C       0.0000000000     0.0000000000     0.0000000000
   13      C       0.3541530000     0.7667740000     1.1130200000
   14      C       0.9377510000     2.0294040000     0.8205780000
   15      H       0.1913500000     0.4144750000     2.1428810000
   16      C       1.0420300000     2.2545810000    -0.5635880000
   17      S       0.4068510000     0.8812280000    -1.4647480000
   18      C       1.3844260000     2.9957790000     1.8823800000
   19      H       1.1964130000     2.5891940000     2.8949740000
   20      H       0.8496410000     3.9657070000     1.8081370000
   21      H       2.4697560000     3.2167530000     1.8082300000
   22      H       1.4439190000     3.1242430000    -1.0971140000
 ----------------------------------------------------------------

   10   -1179.6729601944      4.86e-07  Convergence criterion met
 Total energy in the final basis set =    -1179.6729601944
        RIMP2         total energy =     -1181.6559309951 a.u.

                    Orbital Energies (a.u.)
 --------------------------------------------------------------

 Alpha MOs
 -- Occupied --
-91.9864 -91.9846 -11.2807 -11.2792 -11.2692 -11.2685 -11.2534 -11.2485
-11.2444 -11.2427 -11.2303 -11.2301  -8.9862  -8.9843  -6.6671  -6.6666
 -6.6660  -6.6653  -6.6647  -6.6641  -1.1821  -1.1499  -1.0422  -1.0258
 -0.9959  -0.9562  -0.9133  -0.8949  -0.8017  -0.7550  -0.7288  -0.7003
 -0.6603  -0.6152  -0.5919  -0.5820  -0.5706  -0.5622  -0.5512  -0.5399
 -0.5308  -0.5215  -0.5048  -0.4910  -0.4846  -0.4766  -0.4515  -0.3684
 -0.3461  -0.3372  -0.2694

          Ground-State Mulliken Net Atomic Charges

     Atom                 Charge (a.u.)
  ----------------------------------------
      1 C                    -0.225385
      2 C                    -0.246851
      3 C                     0.047364
      4 H                     0.184536
      5 C                    -0.031567
      6 S                     0.011972
      7 C                    -0.311962
      8 H                     0.115975
      9 H                     0.116334
     10 H                     0.102100
     11 H                     0.205180
     12 C                     0.007414
     13 C                    -0.213513
     14 C                     0.015846
     15 H                     0.194582
     16 C                    -0.229286
     17 S                     0.007244
     18 C                    -0.270298
     19 H                     0.101623
     20 H                     0.108925
     21 H                     0.108616
     22 H                     0.201153
  ----------------------------------------
  Sum of atomic charges =     0.000000

                    Cartesian Multipole Moments
 -----------------------------------------------------------------
    Charge (ESU x 10^10)
                -0.0000
    Dipole Moment (Debye)
         X       0.4040      Y       0.5483      Z       2.8821
       Tot       2.9615
    Quadrupole Moments (Debye-Ang)
        XX     -89.9523     XY       5.1393     YY     -71.2156
        XZ      -1.6217     YZ      -1.1847     ZZ     -80.8412

 Total job time:  54.18s(wall), 1781.18s(cpu)
        *  Thank you very much for using Q-Chem.  Have a nice day.  *
