 Q-Chem 5.4, Q-Chem, Inc., Pleasanton, CA (2021)
 Q-Chem 5.4.0 for Intel X86 EM64T Linux

User input:
--------------------------------------------------------------
$molecule
0 1
C	0.626855	-3.887800	0.363176
C	-0.573074	-3.701456	-0.329669
C	-0.940016	-2.345170	-0.542250
H	-1.184837	-4.545233	-0.682412
C	0.000000	-1.450135	0.000000
S	1.322686	-2.321334	0.764076
C	-2.192440	-1.934439	-1.265537
H	-2.768365	-2.819799	-1.597559
H	-1.967653	-1.326210	-2.166534
H	-2.860032	-1.325374	-0.620843
H	1.131925	-4.815326	0.655262
C	0.000000	0.000000	0.000000
C	0.354153	0.766774	1.113020
C	0.937751	2.029404	0.820578
H	0.191350	0.414475	2.142881
C	1.042030	2.254581	-0.563588
S	0.406851	0.881228	-1.464748
C	1.384426	2.995779	1.882380
H	1.196413	2.589194	2.894974
H	0.849641	3.965707	1.808137
H	2.469756	3.216753	1.808230
H	1.443919	3.124243	-1.097114
$end

$rem
JOBTYPE		SP
EXCHANGE	HF
CORRELATION	pRIMP2
BASIS		cc-pvtz
METHOD		rimp2
AUX_BASIS	rimp2-cc-pvtz
SOLVENT_METHOD	PCM
PURECART	11111
SYMMETRY	false
MEM_TOTAL	110000
SCF_CONVERGENCE = 6
THRESH=10
GUI = 2
$end

$solvent
dielectric 4.90
$end
--------------------------------------------------------------

             Standard Nuclear Orientation (Angstroms)
    I     Atom           X                Y                Z
 ----------------------------------------------------------------
    1      C       0.6268550000    -3.8878000000     0.3631760000
    2      C      -0.5730740000    -3.7014560000    -0.3296690000
    3      C      -0.9400160000    -2.3451700000    -0.5422500000
    4      H      -1.1848370000    -4.5452330000    -0.6824120000
    5      C       0.0000000000    -1.4501350000     0.0000000000
    6      S       1.3226860000    -2.3213340000     0.7640760000
    7      C      -2.1924400000    -1.9344390000    -1.2655370000
    8      H      -2.7683650000    -2.8197990000    -1.5975590000
    9      H      -1.9676530000    -1.3262100000    -2.1665340000
   10      H      -2.8600320000    -1.3253740000    -0.6208430000
   11      H       1.1319250000    -4.8153260000     0.6552620000
   12      C       0.0000000000     0.0000000000     0.0000000000
   13      C       0.3541530000     0.7667740000     1.1130200000
   14      C       0.9377510000     2.0294040000     0.8205780000
   15      H       0.1913500000     0.4144750000     2.1428810000
   16      C       1.0420300000     2.2545810000    -0.5635880000
   17      S       0.4068510000     0.8812280000    -1.4647480000
   18      C       1.3844260000     2.9957790000     1.8823800000
   19      H       1.1964130000     2.5891940000     2.8949740000
   20      H       0.8496410000     3.9657070000     1.8081370000
   21      H       2.4697560000     3.2167530000     1.8082300000
   22      H       1.4439190000     3.1242430000    -1.0971140000
 ----------------------------------------------------------------

   10   -1179.6765268427      5.10e-07  Convergence criterion met
 Total energy in the final basis set =    -1179.6765268427
        RIMP2         total energy =     -1181.6568525172 a.u.

                    Orbital Energies (a.u.)
 --------------------------------------------------------------

 Alpha MOs
 -- Occupied --
-91.9851 -91.9847 -11.2757 -11.2730 -11.2712 -11.2688 -11.2517 -11.2501
-11.2441 -11.2413 -11.2293 -11.2288  -8.9846  -8.9844  -6.6654  -6.6653
 -6.6649  -6.6647  -6.6643  -6.6641  -1.1794  -1.1492  -1.0401  -1.0223
 -0.9979  -0.9520  -0.9139  -0.8923  -0.7987  -0.7577  -0.7268  -0.6925
 -0.6614  -0.6170  -0.5827  -0.5793  -0.5724  -0.5694  -0.5510  -0.5330
 -0.5266  -0.5184  -0.5077  -0.4940  -0.4838  -0.4664  -0.4604  -0.3454
 -0.3397  -0.3366  -0.2887

          Ground-State Mulliken Net Atomic Charges

     Atom                 Charge (a.u.)
  ----------------------------------------
      1 C                    -0.211365
      2 C                    -0.251310
      3 C                     0.042826
      4 H                     0.184043
      5 C                    -0.035808
      6 S                     0.026379
      7 C                    -0.286468
      8 H                     0.107853
      9 H                     0.108755
     10 H                     0.111152
     11 H                     0.204050
     12 C                     0.011138
     13 C                    -0.293041
     14 C                     0.051315
     15 H                     0.189133
     16 C                    -0.237437
     17 S                     0.029564
     18 C                    -0.268889
     19 H                     0.103117
     20 H                     0.107863
     21 H                     0.108459
     22 H                     0.198671
  ----------------------------------------
  Sum of atomic charges =     0.000000

                    Cartesian Multipole Moments
 -----------------------------------------------------------------
    Charge (ESU x 10^10)
                -0.0000
    Dipole Moment (Debye)
         X      -0.4062      Y       0.3497      Z       0.7474
       Tot       0.9198
    Quadrupole Moments (Debye-Ang)
        XX     -85.8216     XY       6.2172     YY     -70.8702
        XZ       3.3425     YZ       2.1272     ZZ     -84.9712

 Total job time:  50.15s(wall), 1711.47s(cpu)
        *  Thank you very much for using Q-Chem.  Have a nice day.  *
