 Q-Chem 5.4, Q-Chem, Inc., Pleasanton, CA (2021)
 Q-Chem 5.4.0 for Intel X86 EM64T Linux

User input:
--------------------------------------------------------------
$molecule
0 1
C	0.555670	-3.887800	-0.464838
C	-0.505790	-3.701456	0.425760
C	-0.831053	-2.345170	0.697866
H	-1.046496	-4.545233	0.879984
C	-0.000000	-1.450135	-0.000000
S	1.170382	-2.321334	-0.981588
C	-1.939074	-1.934439	1.627381
H	-2.448051	-2.819799	2.055015
H	-2.708853	-1.326210	1.107991
H	-1.561590	-1.325374	2.475210
H	1.002886	-4.815326	-0.839549
C	0.000000	0.000000	0.000000
C	0.540541	0.648986	1.113020
C	1.431046	1.717546	0.820578
H	0.292104	0.350827	2.142881
C	1.590053	1.908061	-0.563588
S	0.621066	0.745901	-1.464748
C	2.112618	2.535384	1.882380
H	1.825779	2.191315	2.894974
H	1.847090	3.610676	1.808137
H	3.218159	2.467925	1.808230
H	2.203332	2.644073	-1.097114
$end

$rem
JOBTYPE		SP
EXCHANGE	HF
CORRELATION	pRIMP2
BASIS		cc-pvtz
METHOD		rimp2
AUX_BASIS	rimp2-cc-pvtz
SOLVENT_METHOD	PCM
PURECART	11111
SYMMETRY	false
MEM_TOTAL	110000
SCF_CONVERGENCE = 6
THRESH=10
GUI = 2
$end

$solvent
dielectric 4.90
$end
--------------------------------------------------------------

             Standard Nuclear Orientation (Angstroms)
    I     Atom           X                Y                Z
 ----------------------------------------------------------------
    1      C       0.5556700000    -3.8878000000    -0.4648380000
    2      C      -0.5057900000    -3.7014560000     0.4257600000
    3      C      -0.8310530000    -2.3451700000     0.6978660000
    4      H      -1.0464960000    -4.5452330000     0.8799840000
    5      C       0.0000000000    -1.4501350000     0.0000000000
    6      S       1.1703820000    -2.3213340000    -0.9815880000
    7      C      -1.9390740000    -1.9344390000     1.6273810000
    8      H      -2.4480510000    -2.8197990000     2.0550150000
    9      H      -2.7088530000    -1.3262100000     1.1079910000
   10      H      -1.5615900000    -1.3253740000     2.4752100000
   11      H       1.0028860000    -4.8153260000    -0.8395490000
   12      C       0.0000000000     0.0000000000     0.0000000000
   13      C       0.5405410000     0.6489860000     1.1130200000
   14      C       1.4310460000     1.7175460000     0.8205780000
   15      H       0.2921040000     0.3508270000     2.1428810000
   16      C       1.5900530000     1.9080610000    -0.5635880000
   17      S       0.6210660000     0.7459010000    -1.4647480000
   18      C       2.1126180000     2.5353840000     1.8823800000
   19      H       1.8257790000     2.1913150000     2.8949740000
   20      H       1.8470900000     3.6106760000     1.8081370000
   21      H       3.2181590000     2.4679250000     1.8082300000
   22      H       2.2033320000     2.6440730000    -1.0971140000
 ----------------------------------------------------------------

   10   -1179.6559084180      6.37e-07  Convergence criterion met
 Total energy in the final basis set =    -1179.6559084180
        RIMP2         total energy =     -1181.6417833486 a.u.

                    Orbital Energies (a.u.)
 --------------------------------------------------------------

 Alpha MOs
 -- Occupied --
-91.9860 -91.9818 -11.2768 -11.2761 -11.2710 -11.2632 -11.2541 -11.2528
-11.2416 -11.2391 -11.2307 -11.2270  -8.9860  -8.9815  -6.6668  -6.6662
 -6.6657  -6.6623  -6.6617  -6.6611  -1.1836  -1.1477  -1.0430  -1.0206
 -0.9967  -0.9550  -0.9105  -0.8928  -0.7998  -0.7502  -0.7340  -0.6952
 -0.6578  -0.6174  -0.5872  -0.5798  -0.5694  -0.5655  -0.5503  -0.5354
 -0.5312  -0.5179  -0.5079  -0.4899  -0.4778  -0.4695  -0.4562  -0.3599
 -0.3398  -0.3325  -0.2772

          Ground-State Mulliken Net Atomic Charges

     Atom                 Charge (a.u.)
  ----------------------------------------
      1 C                    -0.235061
      2 C                    -0.246166
      3 C                     0.020879
      4 H                     0.182552
      5 C                    -0.017781
      6 S                     0.023787
      7 C                    -0.290779
      8 H                     0.107659
      9 H                     0.109064
     10 H                     0.104309
     11 H                     0.201864
     12 C                    -0.053978
     13 C                    -0.161215
     14 C                     0.000769
     15 H                     0.193294
     16 C                    -0.201685
     17 S                     0.011966
     18 C                    -0.268781
     19 H                     0.102501
     20 H                     0.108248
     21 H                     0.107717
     22 H                     0.200836
  ----------------------------------------
  Sum of atomic charges =     0.000000

                    Cartesian Multipole Moments
 -----------------------------------------------------------------
    Charge (ESU x 10^10)
                -0.0000
    Dipole Moment (Debye)
         X       0.5901      Y       0.9997      Z       2.4784
       Tot       2.7368
    Quadrupole Moments (Debye-Ang)
        XX     -84.2140     XY       7.5948     YY     -75.3578
        XZ      -2.3634     YZ      -0.7003     ZZ     -83.6721

 Total job time:  54.12s(wall), 1791.81s(cpu)
        *  Thank you very much for using Q-Chem.  Have a nice day.  *
