 Q-Chem 5.4, Q-Chem, Inc., Pleasanton, CA (2021)
 Q-Chem 5.4.0 for Intel X86 EM64T Linux

User input:
--------------------------------------------------------------
$molecule
0 1
C	0.626855	-3.887800	0.363176
C	-0.573074	-3.701456	-0.329669
C	-0.940016	-2.345170	-0.542250
H	-1.184837	-4.545233	-0.682412
C	0.000000	-1.450135	0.000000
S	1.322686	-2.321334	0.764076
C	-2.192440	-1.934439	-1.265537
H	-2.768365	-2.819799	-1.597559
H	-1.967653	-1.326210	-2.166534
H	-2.860032	-1.325374	-0.620843
H	1.131925	-4.815326	0.655262
C	0.000000	0.000000	0.000000
C	0.285976	0.794723	1.113020
C	0.757308	2.103412	0.820578
H	0.154498	0.429575	2.142881
C	0.841565	2.336821	-0.563588
S	0.328498	0.913334	-1.464748
C	1.118059	3.105040	1.882380
H	0.966197	2.683616	2.894974
H	0.500773	4.024668	1.808137
H	2.180000	3.419766	1.808230
H	1.166129	3.238200	-1.097114
$end

$rem
JOBTYPE		SP
EXCHANGE	HF
CORRELATION	pRIMP2
BASIS		cc-pvtz
METHOD		rimp2
AUX_BASIS	rimp2-cc-pvtz
SOLVENT_METHOD	PCM
PURECART	11111
SYMMETRY	false
MEM_TOTAL	110000
SCF_CONVERGENCE = 6
THRESH=10
GUI = 2
$end

$solvent
dielectric 4.90
$end
--------------------------------------------------------------

             Standard Nuclear Orientation (Angstroms)
    I     Atom           X                Y                Z
 ----------------------------------------------------------------
    1      C       0.6268550000    -3.8878000000     0.3631760000
    2      C      -0.5730740000    -3.7014560000    -0.3296690000
    3      C      -0.9400160000    -2.3451700000    -0.5422500000
    4      H      -1.1848370000    -4.5452330000    -0.6824120000
    5      C       0.0000000000    -1.4501350000     0.0000000000
    6      S       1.3226860000    -2.3213340000     0.7640760000
    7      C      -2.1924400000    -1.9344390000    -1.2655370000
    8      H      -2.7683650000    -2.8197990000    -1.5975590000
    9      H      -1.9676530000    -1.3262100000    -2.1665340000
   10      H      -2.8600320000    -1.3253740000    -0.6208430000
   11      H       1.1319250000    -4.8153260000     0.6552620000
   12      C       0.0000000000     0.0000000000     0.0000000000
   13      C       0.2859760000     0.7947230000     1.1130200000
   14      C       0.7573080000     2.1034120000     0.8205780000
   15      H       0.1544980000     0.4295750000     2.1428810000
   16      C       0.8415650000     2.3368210000    -0.5635880000
   17      S       0.3284980000     0.9133340000    -1.4647480000
   18      C       1.1180590000     3.1050400000     1.8823800000
   19      H       0.9661970000     2.6836160000     2.8949740000
   20      H       0.5007730000     4.0246680000     1.8081370000
   21      H       2.1800000000     3.4197660000     1.8082300000
   22      H       1.1661290000     3.2382000000    -1.0971140000
 ----------------------------------------------------------------

   10   -1179.6805166357      5.11e-07  Convergence criterion met
 Total energy in the final basis set =    -1179.6805166357
        RIMP2         total energy =     -1181.6597975706 a.u.

                    Orbital Energies (a.u.)
 --------------------------------------------------------------

 Alpha MOs
 -- Occupied --
-91.9856 -91.9850 -11.2775 -11.2734 -11.2718 -11.2673 -11.2515 -11.2512
-11.2430 -11.2418 -11.2292 -11.2290  -8.9851  -8.9846  -6.6660  -6.6655
 -6.6654  -6.6649  -6.6648  -6.6643  -1.1790  -1.1494  -1.0398  -1.0227
 -0.9979  -0.9524  -0.9140  -0.8924  -0.7991  -0.7579  -0.7264  -0.6930
 -0.6618  -0.6168  -0.5827  -0.5790  -0.5726  -0.5695  -0.5513  -0.5329
 -0.5266  -0.5187  -0.5075  -0.4943  -0.4858  -0.4665  -0.4604  -0.3450
 -0.3410  -0.3363  -0.2891

          Ground-State Mulliken Net Atomic Charges

     Atom                 Charge (a.u.)
  ----------------------------------------
      1 C                    -0.210302
      2 C                    -0.251090
      3 C                     0.041779
      4 H                     0.184398
      5 C                    -0.036689
      6 S                     0.026326
      7 C                    -0.285938
      8 H                     0.107879
      9 H                     0.108985
     10 H                     0.111299
     11 H                     0.204211
     12 C                     0.013171
     13 C                    -0.283257
     14 C                     0.044490
     15 H                     0.188557
     16 C                    -0.239716
     17 S                     0.027718
     18 C                    -0.269812
     19 H                     0.103041
     20 H                     0.107876
     21 H                     0.108543
     22 H                     0.198528
  ----------------------------------------
  Sum of atomic charges =     0.000000

                    Cartesian Multipole Moments
 -----------------------------------------------------------------
    Charge (ESU x 10^10)
                -0.0000
    Dipole Moment (Debye)
         X      -0.6084      Y       0.2915      Z       0.7292
       Tot       0.9934
    Quadrupole Moments (Debye-Ang)
        XX     -86.5001     XY       5.4769     YY     -70.0659
        XZ       3.2839     YZ       2.1708     ZZ     -85.0034

 Total job time:  49.16s(wall), 1697.62s(cpu)
        *  Thank you very much for using Q-Chem.  Have a nice day.  *
