 Q-Chem 5.4, Q-Chem, Inc., Pleasanton, CA (2021)
 Q-Chem 5.4.0 for Intel X86 EM64T Linux

User input:
--------------------------------------------------------------
$molecule
0 1
C	0.674034	-3.828925	0.724460
C	0.641731	-3.645403	-0.661131
C	0.406834	-2.309612	-1.085203
H	0.787861	-4.476429	-1.367305
C	0.251813	-1.428104	0.000000
S	0.402734	-2.286131	1.527517
C	0.335682	-1.905091	-2.531478
H	0.489007	-2.777074	-3.196254
H	1.109183	-1.151090	-2.787305
H	-0.648644	-1.460194	-2.787282
H	0.834685	-4.742433	1.307907
C	0.000000	0.000000	0.000000
C	0.645024	0.545262	1.113020
C	1.707554	1.442954	0.820578
H	0.348587	0.294774	2.142881
C	1.897227	1.602964	-0.563588
S	0.741155	0.626722	-1.464748
C	2.520787	2.130014	1.882380
H	2.178559	1.840981	2.894974
H	2.446016	3.235078	1.808137
H	3.597818	1.871604	1.808230
H	2.628997	2.221299	-1.097114
$end

$rem
JOBTYPE		SP
EXCHANGE	HF
CORRELATION	pRIMP2
BASIS		cc-pvtz
METHOD		rimp2
AUX_BASIS	rimp2-cc-pvtz
SOLVENT_METHOD	PCM
PURECART	11111
SYMMETRY	false
MEM_TOTAL	110000
SCF_CONVERGENCE = 6
THRESH=10
GUI = 2
$end

$solvent
dielectric 4.90
$end
--------------------------------------------------------------

             Standard Nuclear Orientation (Angstroms)
    I     Atom           X                Y                Z
 ----------------------------------------------------------------
    1      C       0.6740340000    -3.8289250000     0.7244600000
    2      C       0.6417310000    -3.6454030000    -0.6611310000
    3      C       0.4068340000    -2.3096120000    -1.0852030000
    4      H       0.7878610000    -4.4764290000    -1.3673050000
    5      C       0.2518130000    -1.4281040000     0.0000000000
    6      S       0.4027340000    -2.2861310000     1.5275170000
    7      C       0.3356820000    -1.9050910000    -2.5314780000
    8      H       0.4890070000    -2.7770740000    -3.1962540000
    9      H       1.1091830000    -1.1510900000    -2.7873050000
   10      H      -0.6486440000    -1.4601940000    -2.7872820000
   11      H       0.8346850000    -4.7424330000     1.3079070000
   12      C       0.0000000000     0.0000000000     0.0000000000
   13      C       0.6450240000     0.5452620000     1.1130200000
   14      C       1.7075540000     1.4429540000     0.8205780000
   15      H       0.3485870000     0.2947740000     2.1428810000
   16      C       1.8972270000     1.6029640000    -0.5635880000
   17      S       0.7411550000     0.6267220000    -1.4647480000
   18      C       2.5207870000     2.1300140000     1.8823800000
   19      H       2.1785590000     1.8409810000     2.8949740000
   20      H       2.4460160000     3.2350780000     1.8081370000
   21      H       3.5978180000     1.8716040000     1.8082300000
   22      H       2.6289970000     2.2212990000    -1.0971140000
 ----------------------------------------------------------------

   11   -1179.5998216641      7.03e-07  Convergence criterion met
 Total energy in the final basis set =    -1179.5998216641
        RIMP2         total energy =     -1181.5998233144 a.u.

                    Orbital Energies (a.u.)
 --------------------------------------------------------------

 Alpha MOs
 -- Occupied --
-91.9826 -91.9749 -11.2908 -11.2813 -11.2658 -11.2586 -11.2560 -11.2554
-11.2379 -11.2325 -11.2316 -11.2205  -8.9841  -8.9754  -6.6646  -6.6638
 -6.6634  -6.6564  -6.6558  -6.6551  -1.1940  -1.1448  -1.0478  -1.0244
 -0.9991  -0.9485  -0.9120  -0.8954  -0.7944  -0.7686  -0.7249  -0.6921
 -0.6548  -0.6216  -0.5922  -0.5857  -0.5762  -0.5699  -0.5502  -0.5342
 -0.5273  -0.5178  -0.5111  -0.4953  -0.4690  -0.4572  -0.4409  -0.3688
 -0.3427  -0.3336  -0.2611

          Ground-State Mulliken Net Atomic Charges

     Atom                 Charge (a.u.)
  ----------------------------------------
      1 C                    -0.247825
      2 C                    -0.244998
      3 C                     0.014865
      4 H                     0.182882
      5 C                    -0.006727
      6 S                    -0.025097
      7 C                    -0.303177
      8 H                     0.105534
      9 H                     0.115731
     10 H                     0.109566
     11 H                     0.199945
     12 C                    -0.101759
     13 C                    -0.112496
     14 C                    -0.012322
     15 H                     0.189311
     16 C                    -0.182749
     17 S                     0.061573
     18 C                    -0.264252
     19 H                     0.103846
     20 H                     0.108087
     21 H                     0.106631
     22 H                     0.203429
  ----------------------------------------
  Sum of atomic charges =     0.000000

                    Cartesian Multipole Moments
 -----------------------------------------------------------------
    Charge (ESU x 10^10)
                -0.0000
    Dipole Moment (Debye)
         X       2.7289      Y       1.8342      Z      -0.0462
       Tot       3.2883
    Quadrupole Moments (Debye-Ang)
        XX     -84.6372     XY       5.0761     YY     -80.0326
        XZ      -0.3647     YZ       3.1340     ZZ     -79.6791

 Total job time:  54.08s(wall), 1890.04s(cpu)
        *  Thank you very much for using Q-Chem.  Have a nice day.  *
