 Q-Chem 5.4, Q-Chem, Inc., Pleasanton, CA (2021)
 Q-Chem 5.4.0 for Intel X86 EM64T Linux

User input:
--------------------------------------------------------------
$molecule
0 1
C	-0.466510	-3.887800	0.554267
C	0.424173	-3.701456	-0.507121
C	0.697244	-2.345170	-0.831575
H	0.877789	-4.545233	-1.048337
C	-0.000000	-1.450135	-0.000000
S	-0.982150	-2.321334	1.169911
C	1.627024	-1.934439	-1.939374
H	2.054010	-2.819799	-2.448894
H	2.475299	-1.326210	-1.561545
H	1.108051	-1.325374	-2.708773
H	-0.841863	-4.815326	1.000944
C	0.000000	0.000000	0.000000
C	0.215623	0.816623	1.113020
C	0.571102	2.161411	0.820578
H	0.116470	0.441406	2.142881
C	0.634696	2.401276	-0.563588
S	0.247646	0.938489	-1.464748
C	0.843182	3.190669	1.882380
H	0.728628	2.757614	2.894974
H	0.148095	4.052998	1.808137
H	1.873652	3.596752	1.808230
H	0.879464	3.327513	-1.097114
$end

$rem
JOBTYPE		SP
EXCHANGE	HF
CORRELATION	pRIMP2
BASIS		cc-pvtz
METHOD		rimp2
AUX_BASIS	rimp2-cc-pvtz
SOLVENT_METHOD	PCM
PURECART	11111
SYMMETRY	false
MEM_TOTAL	110000
SCF_CONVERGENCE = 6
THRESH=10
GUI = 2
$end

$solvent
dielectric 4.90
$end
--------------------------------------------------------------

             Standard Nuclear Orientation (Angstroms)
    I     Atom           X                Y                Z
 ----------------------------------------------------------------
    1      C      -0.4665100000    -3.8878000000     0.5542670000
    2      C       0.4241730000    -3.7014560000    -0.5071210000
    3      C       0.6972440000    -2.3451700000    -0.8315750000
    4      H       0.8777890000    -4.5452330000    -1.0483370000
    5      C       0.0000000000    -1.4501350000     0.0000000000
    6      S      -0.9821500000    -2.3213340000     1.1699110000
    7      C       1.6270240000    -1.9344390000    -1.9393740000
    8      H       2.0540100000    -2.8197990000    -2.4488940000
    9      H       2.4752990000    -1.3262100000    -1.5615450000
   10      H       1.1080510000    -1.3253740000    -2.7087730000
   11      H      -0.8418630000    -4.8153260000     1.0009440000
   12      C       0.0000000000     0.0000000000     0.0000000000
   13      C       0.2156230000     0.8166230000     1.1130200000
   14      C       0.5711020000     2.1614110000     0.8205780000
   15      H       0.1164700000     0.4414060000     2.1428810000
   16      C       0.6346960000     2.4012760000    -0.5635880000
   17      S       0.2476460000     0.9384890000    -1.4647480000
   18      C       0.8431820000     3.1906690000     1.8823800000
   19      H       0.7286280000     2.7576140000     2.8949740000
   20      H       0.1480950000     4.0529980000     1.8081370000
   21      H       1.8736520000     3.5967520000     1.8082300000
   22      H       0.8794640000     3.3275130000    -1.0971140000
 ----------------------------------------------------------------

   10   -1179.6805292701      5.02e-07  Convergence criterion met
 Total energy in the final basis set =    -1179.6805292701
        RIMP2         total energy =     -1181.6613626880 a.u.

                    Orbital Energies (a.u.)
 --------------------------------------------------------------

 Alpha MOs
 -- Occupied --
-91.9851 -91.9849 -11.2811 -11.2773 -11.2712 -11.2654 -11.2516 -11.2514
-11.2428 -11.2420 -11.2291 -11.2276  -8.9848  -8.9846  -6.6657  -6.6655
 -6.6651  -6.6650  -6.6645  -6.6643  -1.1798  -1.1496  -1.0408  -1.0228
 -0.9981  -0.9531  -0.9133  -0.8940  -0.7987  -0.7613  -0.7231  -0.6953
 -0.6615  -0.6163  -0.5828  -0.5776  -0.5767  -0.5697  -0.5515  -0.5324
 -0.5263  -0.5193  -0.5104  -0.4955  -0.4858  -0.4667  -0.4553  -0.3592
 -0.3422  -0.3375  -0.2768

          Ground-State Mulliken Net Atomic Charges

     Atom                 Charge (a.u.)
  ----------------------------------------
      1 C                    -0.215552
      2 C                    -0.251140
      3 C                     0.042776
      4 H                     0.185485
      5 C                    -0.031943
      6 S                     0.019545
      7 C                    -0.301773
      8 H                     0.110043
      9 H                     0.119093
     10 H                     0.112269
     11 H                     0.204653
     12 C                     0.004272
     13 C                    -0.230845
     14 C                     0.016258
     15 H                     0.184945
     16 C                    -0.234776
     17 S                     0.018803
     18 C                    -0.270290
     19 H                     0.103007
     20 H                     0.108295
     21 H                     0.107911
     22 H                     0.198967
  ----------------------------------------
  Sum of atomic charges =     0.000000

                    Cartesian Multipole Moments
 -----------------------------------------------------------------
    Charge (ESU x 10^10)
                -0.0000
    Dipole Moment (Debye)
         X       1.5020      Y       0.3248      Z       0.2371
       Tot       1.5549
    Quadrupole Moments (Debye-Ang)
        XX     -89.3318     XY       1.3047     YY     -69.9628
        XZ      -3.0300     YZ       2.7764     ZZ     -82.6687

 Total job time:  53.03s(wall), 1755.33s(cpu)
        *  Thank you very much for using Q-Chem.  Have a nice day.  *
