 Q-Chem 5.4, Q-Chem, Inc., Pleasanton, CA (2021)
 Q-Chem 5.4.0 for Intel X86 EM64T Linux

User input:
--------------------------------------------------------------
$molecule
0 1
C	0.674034	-3.828925	0.724460
C	0.641731	-3.645403	-0.661131
C	0.406834	-2.309612	-1.085203
H	0.787861	-4.476429	-1.367305
C	0.251813	-1.428104	0.000000
S	0.402734	-2.286131	1.527517
C	0.335682	-1.905091	-2.531478
H	0.489007	-2.777074	-3.196254
H	1.109183	-1.151090	-2.787305
H	-0.648644	-1.460194	-2.787282
H	0.834685	-4.742433	1.307907
C	0.000000	0.000000	0.000000
C	-0.003081	0.844605	1.113020
C	-0.007772	2.235575	0.820578
H	-0.001743	0.456510	2.142881
C	-0.008427	2.483726	-0.563588
S	-0.003691	0.970607	-1.464748
C	-0.011355	3.300181	1.882380
H	-0.009922	2.852233	2.894974
H	-0.905944	3.953225	1.808137
H	0.878901	3.959133	1.808230
H	-0.011727	3.441752	-1.097114
$end

$rem
JOBTYPE		SP
EXCHANGE	HF
CORRELATION	pRIMP2
BASIS		cc-pvtz
METHOD		rimp2
AUX_BASIS	rimp2-cc-pvtz
SOLVENT_METHOD	PCM
PURECART	11111
SYMMETRY	false
MEM_TOTAL	110000
SCF_CONVERGENCE = 6
THRESH=10
GUI = 2
$end

$solvent
dielectric 4.90
$end
--------------------------------------------------------------

             Standard Nuclear Orientation (Angstroms)
    I     Atom           X                Y                Z
 ----------------------------------------------------------------
    1      C       0.6740340000    -3.8289250000     0.7244600000
    2      C       0.6417310000    -3.6454030000    -0.6611310000
    3      C       0.4068340000    -2.3096120000    -1.0852030000
    4      H       0.7878610000    -4.4764290000    -1.3673050000
    5      C       0.2518130000    -1.4281040000     0.0000000000
    6      S       0.4027340000    -2.2861310000     1.5275170000
    7      C       0.3356820000    -1.9050910000    -2.5314780000
    8      H       0.4890070000    -2.7770740000    -3.1962540000
    9      H       1.1091830000    -1.1510900000    -2.7873050000
   10      H      -0.6486440000    -1.4601940000    -2.7872820000
   11      H       0.8346850000    -4.7424330000     1.3079070000
   12      C       0.0000000000     0.0000000000     0.0000000000
   13      C      -0.0030810000     0.8446050000     1.1130200000
   14      C      -0.0077720000     2.2355750000     0.8205780000
   15      H      -0.0017430000     0.4565100000     2.1428810000
   16      C      -0.0084270000     2.4837260000    -0.5635880000
   17      S      -0.0036910000     0.9706070000    -1.4647480000
   18      C      -0.0113550000     3.3001810000     1.8823800000
   19      H      -0.0099220000     2.8522330000     2.8949740000
   20      H      -0.9059440000     3.9532250000     1.8081370000
   21      H       0.8789010000     3.9591330000     1.8082300000
   22      H      -0.0117270000     3.4417520000    -1.0971140000
 ----------------------------------------------------------------

   10   -1179.6846064309      5.32e-07  Convergence criterion met
 Total energy in the final basis set =    -1179.6846064309
        RIMP2         total energy =     -1181.6653153613 a.u.

                    Orbital Energies (a.u.)
 --------------------------------------------------------------

 Alpha MOs
 -- Occupied --
-91.9856 -91.9854 -11.2844 -11.2792 -11.2734 -11.2621 -11.2537 -11.2523
-11.2440 -11.2391 -11.2302 -11.2289  -8.9855  -8.9852  -6.6664  -6.6660
 -6.6659  -6.6655  -6.6652  -6.6648  -1.1811  -1.1501  -1.0416  -1.0258
 -0.9986  -0.9525  -0.9148  -0.8957  -0.7995  -0.7653  -0.7191  -0.6959
 -0.6632  -0.6160  -0.5839  -0.5826  -0.5773  -0.5696  -0.5529  -0.5336
 -0.5230  -0.5207  -0.5111  -0.4976  -0.4906  -0.4679  -0.4506  -0.3708
 -0.3438  -0.3402  -0.2687

          Ground-State Mulliken Net Atomic Charges

     Atom                 Charge (a.u.)
  ----------------------------------------
      1 C                    -0.211080
      2 C                    -0.255860
      3 C                     0.055430
      4 H                     0.185892
      5 C                    -0.026433
      6 S                     0.007123
      7 C                    -0.324017
      8 H                     0.118901
      9 H                     0.115848
     10 H                     0.116295
     11 H                     0.207435
     12 C                     0.061844
     13 C                    -0.277034
     14 C                     0.038745
     15 H                     0.175560
     16 C                    -0.261761
     17 S                     0.023875
     18 C                    -0.270233
     19 H                     0.102864
     20 H                     0.108344
     21 H                     0.108795
     22 H                     0.199465
  ----------------------------------------
  Sum of atomic charges =     0.000000

                    Cartesian Multipole Moments
 -----------------------------------------------------------------
    Charge (ESU x 10^10)
                -0.0000
    Dipole Moment (Debye)
         X       0.3068      Y       0.0769      Z      -0.1789
       Tot       0.3634
    Quadrupole Moments (Debye-Ang)
        XX     -92.3846     XY      -2.3357     YY     -68.9785
        XZ      -0.4399     YZ       3.5299     ZZ     -79.7422

 Total job time:  57.58s(wall), 1858.25s(cpu)
        *  Thank you very much for using Q-Chem.  Have a nice day.  *
