 Q-Chem 5.4, Q-Chem, Inc., Pleasanton, CA (2021)
 Q-Chem 5.4.0 for Intel X86 EM64T Linux

User input:
--------------------------------------------------------------
$molecule
0 1
C	0.713644	-3.887800	-0.124726
C	-0.650907	-3.701456	0.115824
C	-1.068646	-2.345170	0.188844
H	-1.346284	-4.545233	0.238841
C	0.000000	-1.450135	0.000000
S	1.504375	-2.321334	-0.264890
C	-2.492978	-1.934439	0.439816
H	-3.147582	-2.819799	0.555669
H	-2.899931	-1.326210	-0.394879
H	-2.589982	-1.325374	1.362799
H	1.288299	-4.815326	-0.225628
C	0.000000	0.000000	0.000000
C	0.285976	0.794723	1.113020
C	0.757308	2.103412	0.820578
H	0.154498	0.429575	2.142881
C	0.841565	2.336821	-0.563588
S	0.328498	0.913334	-1.464748
C	1.118059	3.105040	1.882380
H	0.966197	2.683616	2.894974
H	0.500773	4.024668	1.808137
H	2.180000	3.419766	1.808230
H	1.166129	3.238200	-1.097114
$end

$rem
JOBTYPE		SP
EXCHANGE	HF
CORRELATION	pRIMP2
BASIS		cc-pvtz
METHOD		rimp2
AUX_BASIS	rimp2-cc-pvtz
SOLVENT_METHOD	PCM
PURECART	11111
SYMMETRY	false
MEM_TOTAL	110000
SCF_CONVERGENCE = 6
THRESH=10
GUI = 2
$end

$solvent
dielectric 4.90
$end
--------------------------------------------------------------

             Standard Nuclear Orientation (Angstroms)
    I     Atom           X                Y                Z
 ----------------------------------------------------------------
    1      C       0.7136440000    -3.8878000000    -0.1247260000
    2      C      -0.6509070000    -3.7014560000     0.1158240000
    3      C      -1.0686460000    -2.3451700000     0.1888440000
    4      H      -1.3462840000    -4.5452330000     0.2388410000
    5      C       0.0000000000    -1.4501350000     0.0000000000
    6      S       1.5043750000    -2.3213340000    -0.2648900000
    7      C      -2.4929780000    -1.9344390000     0.4398160000
    8      H      -3.1475820000    -2.8197990000     0.5556690000
    9      H      -2.8999310000    -1.3262100000    -0.3948790000
   10      H      -2.5899820000    -1.3253740000     1.3627990000
   11      H       1.2882990000    -4.8153260000    -0.2256280000
   12      C       0.0000000000     0.0000000000     0.0000000000
   13      C       0.2859760000     0.7947230000     1.1130200000
   14      C       0.7573080000     2.1034120000     0.8205780000
   15      H       0.1544980000     0.4295750000     2.1428810000
   16      C       0.8415650000     2.3368210000    -0.5635880000
   17      S       0.3284980000     0.9133340000    -1.4647480000
   18      C       1.1180590000     3.1050400000     1.8823800000
   19      H       0.9661970000     2.6836160000     2.8949740000
   20      H       0.5007730000     4.0246680000     1.8081370000
   21      H       2.1800000000     3.4197660000     1.8082300000
   22      H       1.1661290000     3.2382000000    -1.0971140000
 ----------------------------------------------------------------

   10   -1179.6786152178      5.06e-07  Convergence criterion met
 Total energy in the final basis set =    -1179.6786152178
        RIMP2         total energy =     -1181.6576496575 a.u.

                    Orbital Energies (a.u.)
 --------------------------------------------------------------

 Alpha MOs
 -- Occupied --
-91.9852 -91.9843 -11.2762 -11.2727 -11.2718 -11.2675 -11.2514 -11.2512
-11.2439 -11.2411 -11.2292 -11.2288  -8.9848  -8.9839  -6.6656  -6.6651
 -6.6648  -6.6645  -6.6643  -6.6636  -1.1784  -1.1492  -1.0395  -1.0223
 -0.9964  -0.9539  -0.9125  -0.8924  -0.7996  -0.7518  -0.7315  -0.6940
 -0.6613  -0.6167  -0.5829  -0.5792  -0.5698  -0.5687  -0.5511  -0.5309
 -0.5301  -0.5190  -0.5076  -0.4917  -0.4847  -0.4655  -0.4624  -0.3496
 -0.3361  -0.3200  -0.3027

          Ground-State Mulliken Net Atomic Charges

     Atom                 Charge (a.u.)
  ----------------------------------------
      1 C                    -0.206130
      2 C                    -0.252878
      3 C                     0.059038
      4 H                     0.184047
      5 C                    -0.064070
      6 S                     0.026607
      7 C                    -0.284335
      8 H                     0.106806
      9 H                     0.110793
     10 H                     0.108688
     11 H                     0.204023
     12 C                    -0.014119
     13 C                    -0.222763
     14 C                     0.021795
     15 H                     0.184336
     16 C                    -0.233148
     17 S                     0.024682
     18 C                    -0.270418
     19 H                     0.102799
     20 H                     0.107801
     21 H                     0.108116
     22 H                     0.198328
  ----------------------------------------
  Sum of atomic charges =     0.000000

                    Cartesian Multipole Moments
 -----------------------------------------------------------------
    Charge (ESU x 10^10)
                -0.0000
    Dipole Moment (Debye)
         X      -0.7771      Y       0.3576      Z       1.7651
       Tot       1.9614
    Quadrupole Moments (Debye-Ang)
        XX     -85.1015     XY       5.7253     YY     -70.2528
        XZ      -0.7147     YZ       0.6354     ZZ     -86.4498

 Total job time:  56.18s(wall), 1816.11s(cpu)
        *  Thank you very much for using Q-Chem.  Have a nice day.  *
