 Q-Chem 5.4, Q-Chem, Inc., Pleasanton, CA (2021)
 Q-Chem 5.4.0 for Intel X86 EM64T Linux

User input:
--------------------------------------------------------------
$molecule
0 1
C	-0.554267	-3.887800	-0.466510
C	0.507121	-3.701456	0.424173
C	0.831575	-2.345170	0.697244
H	1.048337	-4.545233	0.877789
C	-0.000000	-1.450135	-0.000000
S	-1.169911	-2.321334	-0.982150
C	1.939374	-1.934439	1.627024
H	2.448894	-2.819799	2.054010
H	1.561545	-1.326210	2.475299
H	2.708773	-1.325374	1.108051
H	-1.000944	-4.815326	-0.841863
C	0.000000	0.000000	0.000000
C	0.070542	0.841660	1.113020
C	0.187101	2.227746	0.820578
H	0.038051	0.454925	2.142881
C	0.208076	2.475009	-0.563588
S	0.080917	0.967235	-1.464748
C	0.276318	3.288613	1.882380
H	0.238704	2.842244	2.894974
H	-0.557951	4.017140	1.808137
H	1.220618	3.867466	1.808230
H	0.288286	3.429678	-1.097114
$end

$rem
JOBTYPE		SP
EXCHANGE	HF
CORRELATION	pRIMP2
BASIS		cc-pvtz
METHOD		rimp2
AUX_BASIS	rimp2-cc-pvtz
SOLVENT_METHOD	PCM
PURECART	11111
SYMMETRY	false
MEM_TOTAL	110000
SCF_CONVERGENCE = 6
THRESH=10
GUI = 2
$end

$solvent
dielectric 4.90
$end
--------------------------------------------------------------

             Standard Nuclear Orientation (Angstroms)
    I     Atom           X                Y                Z
 ----------------------------------------------------------------
    1      C      -0.5542670000    -3.8878000000    -0.4665100000
    2      C       0.5071210000    -3.7014560000     0.4241730000
    3      C       0.8315750000    -2.3451700000     0.6972440000
    4      H       1.0483370000    -4.5452330000     0.8777890000
    5      C       0.0000000000    -1.4501350000     0.0000000000
    6      S      -1.1699110000    -2.3213340000    -0.9821500000
    7      C       1.9393740000    -1.9344390000     1.6270240000
    8      H       2.4488940000    -2.8197990000     2.0540100000
    9      H       1.5615450000    -1.3262100000     2.4752990000
   10      H       2.7087730000    -1.3253740000     1.1080510000
   11      H      -1.0009440000    -4.8153260000    -0.8418630000
   12      C       0.0000000000     0.0000000000     0.0000000000
   13      C       0.0705420000     0.8416600000     1.1130200000
   14      C       0.1871010000     2.2277460000     0.8205780000
   15      H       0.0380510000     0.4549250000     2.1428810000
   16      C       0.2080760000     2.4750090000    -0.5635880000
   17      S       0.0809170000     0.9672350000    -1.4647480000
   18      C       0.2763180000     3.2886130000     1.8823800000
   19      H       0.2387040000     2.8422440000     2.8949740000
   20      H      -0.5579510000     4.0171400000     1.8081370000
   21      H       1.2206180000     3.8674660000     1.8082300000
   22      H       0.2882860000     3.4296780000    -1.0971140000
 ----------------------------------------------------------------

   10   -1179.6863825390      5.24e-07  Convergence criterion met
 Total energy in the final basis set =    -1179.6863825390
        RIMP2         total energy =     -1181.6648608744 a.u.

                    Orbital Energies (a.u.)
 --------------------------------------------------------------

 Alpha MOs
 -- Occupied --
-91.9861 -91.9856 -11.2811 -11.2760 -11.2730 -11.2645 -11.2539 -11.2517
-11.2432 -11.2406 -11.2294 -11.2294  -8.9856  -8.9852  -6.6665  -6.6661
 -6.6660  -6.6656  -6.6653  -6.6650  -1.1790  -1.1500  -1.0399  -1.0244
 -0.9961  -0.9552  -0.9131  -0.8934  -0.8010  -0.7534  -0.7300  -0.6972
 -0.6620  -0.6158  -0.5856  -0.5803  -0.5702  -0.5650  -0.5516  -0.5348
 -0.5292  -0.5211  -0.5064  -0.4922  -0.4883  -0.4695  -0.4589  -0.3514
 -0.3418  -0.3390  -0.2835

          Ground-State Mulliken Net Atomic Charges

     Atom                 Charge (a.u.)
  ----------------------------------------
      1 C                    -0.213252
      2 C                    -0.249655
      3 C                     0.046581
      4 H                     0.185490
      5 C                    -0.036165
      6 S                     0.020633
      7 C                    -0.285124
      8 H                     0.111403
      9 H                     0.107154
     10 H                     0.114189
     11 H                     0.204814
     12 C                    -0.003537
     13 C                    -0.241438
     14 C                     0.021764
     15 H                     0.192011
     16 C                    -0.243180
     17 S                     0.021752
     18 C                    -0.271636
     19 H                     0.102331
     20 H                     0.108826
     21 H                     0.108244
     22 H                     0.198794
  ----------------------------------------
  Sum of atomic charges =     0.000000

                    Cartesian Multipole Moments
 -----------------------------------------------------------------
    Charge (ESU x 10^10)
                -0.0000
    Dipole Moment (Debye)
         X       1.3252      Y       0.2004      Z       2.4582
       Tot       2.7999
    Quadrupole Moments (Debye-Ang)
        XX     -88.8171     XY      -0.7572     YY     -68.6429
        XZ       3.3535     YZ      -0.2979     ZZ     -84.0267

 Total job time:  52.38s(wall), 1790.78s(cpu)
        *  Thank you very much for using Q-Chem.  Have a nice day.  *
