 Q-Chem 5.4, Q-Chem, Inc., Pleasanton, CA (2021)
 Q-Chem 5.4.0 for Intel X86 EM64T Linux

User input:
--------------------------------------------------------------
$molecule
0 1
C	0.464838	-3.887800	0.555670
C	-0.425760	-3.701456	-0.505790
C	-0.697866	-2.345170	-0.831053
H	-0.879984	-4.545233	-1.046496
C	0.000000	-1.450135	0.000000
S	0.981588	-2.321334	1.170382
C	-1.627381	-1.934439	-1.939074
H	-2.055015	-2.819799	-2.448051
H	-1.107991	-1.326210	-2.708853
H	-2.475210	-1.325374	-1.561590
H	0.839549	-4.815326	1.002886
C	0.000000	0.000000	0.000000
C	0.729909	0.424971	1.113020
C	1.932179	1.124518	0.820578
H	0.394478	0.229765	2.142881
C	2.146756	1.249161	-0.563588
S	0.838724	0.488500	-1.464748
C	2.852364	1.659924	1.882380
H	2.465145	1.434710	2.894974
H	2.970621	2.761183	1.808137
H	3.868160	1.218416	1.808230
H	2.974781	1.731032	-1.097114
$end

$rem
JOBTYPE		SP
EXCHANGE	HF
CORRELATION	pRIMP2
BASIS		cc-pvtz
METHOD		rimp2
AUX_BASIS	rimp2-cc-pvtz
SOLVENT_METHOD	PCM
PURECART	11111
SYMMETRY	false
MEM_TOTAL	110000
SCF_CONVERGENCE = 6
THRESH=10
GUI = 2
$end

$solvent
dielectric 4.90
$end
--------------------------------------------------------------

             Standard Nuclear Orientation (Angstroms)
    I     Atom           X                Y                Z
 ----------------------------------------------------------------
    1      C       0.4648380000    -3.8878000000     0.5556700000
    2      C      -0.4257600000    -3.7014560000    -0.5057900000
    3      C      -0.6978660000    -2.3451700000    -0.8310530000
    4      H      -0.8799840000    -4.5452330000    -1.0464960000
    5      C       0.0000000000    -1.4501350000     0.0000000000
    6      S       0.9815880000    -2.3213340000     1.1703820000
    7      C      -1.6273810000    -1.9344390000    -1.9390740000
    8      H      -2.0550150000    -2.8197990000    -2.4480510000
    9      H      -1.1079910000    -1.3262100000    -2.7088530000
   10      H      -2.4752100000    -1.3253740000    -1.5615900000
   11      H       0.8395490000    -4.8153260000     1.0028860000
   12      C       0.0000000000     0.0000000000     0.0000000000
   13      C       0.7299090000     0.4249710000     1.1130200000
   14      C       1.9321790000     1.1245180000     0.8205780000
   15      H       0.3944780000     0.2297650000     2.1428810000
   16      C       2.1467560000     1.2491610000    -0.5635880000
   17      S       0.8387240000     0.4885000000    -1.4647480000
   18      C       2.8523640000     1.6599240000     1.8823800000
   19      H       2.4651450000     1.4347100000     2.8949740000
   20      H       2.9706210000     2.7611830000     1.8081370000
   21      H       3.8681600000     1.2184160000     1.8082300000
   22      H       2.9747810000     1.7310320000    -1.0971140000
 ----------------------------------------------------------------

   10   -1179.6179846938      8.28e-07  Convergence criterion met
 Total energy in the final basis set =    -1179.6179846938
        RIMP2         total energy =     -1181.6134180330 a.u.

                    Orbital Energies (a.u.)
 --------------------------------------------------------------

 Alpha MOs
 -- Occupied --
-91.9862 -91.9789 -11.2929 -11.2750 -11.2639 -11.2581 -11.2564 -11.2552
-11.2373 -11.2335 -11.2320 -11.2251  -8.9866  -8.9788  -6.6673  -6.6665
 -6.6662  -6.6597  -6.6591  -6.6584  -1.1929  -1.1451  -1.0467  -1.0196
 -1.0030  -0.9471  -0.9154  -0.8905  -0.7966  -0.7636  -0.7296  -0.6879
 -0.6560  -0.6226  -0.5895  -0.5804  -0.5729  -0.5691  -0.5489  -0.5354
 -0.5298  -0.5142  -0.5061  -0.4947  -0.4694  -0.4641  -0.4543  -0.3549
 -0.3425  -0.3377  -0.2706

          Ground-State Mulliken Net Atomic Charges

     Atom                 Charge (a.u.)
  ----------------------------------------
      1 C                    -0.258975
      2 C                    -0.233245
      3 C                    -0.000436
      4 H                     0.182305
      5 C                     0.015497
      6 S                     0.005902
      7 C                    -0.298396
      8 H                     0.108667
      9 H                     0.105632
     10 H                     0.108381
     11 H                     0.199691
     12 C                    -0.132206
     13 C                    -0.152605
     14 C                    -0.002171
     15 H                     0.202706
     16 C                    -0.169218
     17 S                     0.056555
     18 C                    -0.266289
     19 H                     0.105007
     20 H                     0.110660
     21 H                     0.108093
     22 H                     0.204442
  ----------------------------------------
  Sum of atomic charges =     0.000000

                    Cartesian Multipole Moments
 -----------------------------------------------------------------
    Charge (ESU x 10^10)
                -0.0000
    Dipole Moment (Debye)
         X       2.0286      Y       1.1491      Z       0.5360
       Tot       2.3923
    Quadrupole Moments (Debye-Ang)
        XX     -80.2566     XY       7.5110     YY     -80.6078
        XZ       3.5052     YZ       2.4572     ZZ     -82.2518

 Total job time:  48.93s(wall), 1743.51s(cpu)
        *  Thank you very much for using Q-Chem.  Have a nice day.  *
