 Q-Chem 5.4, Q-Chem, Inc., Pleasanton, CA (2021)
 Q-Chem 5.4.0 for Intel X86 EM64T Linux

User input:
--------------------------------------------------------------
$molecule
0 1
C	-0.627947	-3.887800	0.361285
C	0.572038	-3.701456	-0.331462
C	0.939610	-2.345170	-0.542953
H	1.183405	-4.545233	-0.684893
C	0.000000	-1.450135	0.000000
S	-1.323052	-2.321334	0.763441
C	2.192207	-1.934439	-1.265941
H	2.767709	-2.819799	-1.598695
H	2.860100	-1.326210	-0.620770
H	1.967682	-1.325374	-2.166438
H	-1.133436	-4.815326	0.652645
C	0.000000	0.000000	0.000000
C	0.419634	0.732990	1.113020
C	1.111057	1.939951	0.820578
H	0.226746	0.396221	2.142881
C	1.234565	2.155183	-0.563588
S	0.482106	0.842416	-1.464748
C	1.640257	2.863718	1.882380
H	1.417524	2.475067	2.894974
H	1.192042	3.876565	1.808137
H	2.740717	2.989259	1.808230
H	1.710720	2.986508	-1.097114
$end

$rem
JOBTYPE		SP
EXCHANGE	HF
CORRELATION	pRIMP2
BASIS		cc-pvtz
METHOD		rimp2
AUX_BASIS	rimp2-cc-pvtz
SOLVENT_METHOD	PCM
PURECART	11111
SYMMETRY	false
MEM_TOTAL	110000
SCF_CONVERGENCE = 6
THRESH=10
GUI = 2
$end

$solvent
dielectric 4.90
$end
--------------------------------------------------------------

             Standard Nuclear Orientation (Angstroms)
    I     Atom           X                Y                Z
 ----------------------------------------------------------------
    1      C      -0.6279470000    -3.8878000000     0.3612850000
    2      C       0.5720380000    -3.7014560000    -0.3314620000
    3      C       0.9396100000    -2.3451700000    -0.5429530000
    4      H       1.1834050000    -4.5452330000    -0.6848930000
    5      C       0.0000000000    -1.4501350000     0.0000000000
    6      S      -1.3230520000    -2.3213340000     0.7634410000
    7      C       2.1922070000    -1.9344390000    -1.2659410000
    8      H       2.7677090000    -2.8197990000    -1.5986950000
    9      H       2.8601000000    -1.3262100000    -0.6207700000
   10      H       1.9676820000    -1.3253740000    -2.1664380000
   11      H      -1.1334360000    -4.8153260000     0.6526450000
   12      C       0.0000000000     0.0000000000     0.0000000000
   13      C       0.4196340000     0.7329900000     1.1130200000
   14      C       1.1110570000     1.9399510000     0.8205780000
   15      H       0.2267460000     0.3962210000     2.1428810000
   16      C       1.2345650000     2.1551830000    -0.5635880000
   17      S       0.4821060000     0.8424160000    -1.4647480000
   18      C       1.6402570000     2.8637180000     1.8823800000
   19      H       1.4175240000     2.4750670000     2.8949740000
   20      H       1.1920420000     3.8765650000     1.8081370000
   21      H       2.7407170000     2.9892590000     1.8082300000
   22      H       1.7107200000     2.9865080000    -1.0971140000
 ----------------------------------------------------------------

   10   -1179.6665061035      5.77e-07  Convergence criterion met
 Total energy in the final basis set =    -1179.6665061035
        RIMP2         total energy =     -1181.6509720673 a.u.

                    Orbital Energies (a.u.)
 --------------------------------------------------------------

 Alpha MOs
 -- Occupied --
-91.9843 -91.9822 -11.2758 -11.2739 -11.2713 -11.2680 -11.2521 -11.2482
-11.2477 -11.2410 -11.2298 -11.2251  -8.9842  -8.9819  -6.6650  -6.6645
 -6.6639  -6.6628  -6.6623  -6.6617  -1.1803  -1.1486  -1.0412  -1.0198
 -0.9979  -0.9534  -0.9120  -0.8926  -0.7970  -0.7573  -0.7280  -0.6950
 -0.6593  -0.6171  -0.5816  -0.5792  -0.5738  -0.5694  -0.5503  -0.5318
 -0.5273  -0.5196  -0.5112  -0.4930  -0.4781  -0.4648  -0.4567  -0.3515
 -0.3406  -0.3306  -0.2859

          Ground-State Mulliken Net Atomic Charges

     Atom                 Charge (a.u.)
  ----------------------------------------
      1 C                    -0.217242
      2 C                    -0.253761
      3 C                     0.054008
      4 H                     0.184731
      5 C                    -0.024934
      6 S                     0.015949
      7 C                    -0.292216
      8 H                     0.108299
      9 H                     0.114585
     10 H                     0.114660
     11 H                     0.202803
     12 C                    -0.057315
     13 C                    -0.202139
     14 C                     0.013213
     15 H                     0.187150
     16 C                    -0.220110
     17 S                     0.023766
     18 C                    -0.268885
     19 H                     0.103194
     20 H                     0.108051
     21 H                     0.107198
     22 H                     0.198996
  ----------------------------------------
  Sum of atomic charges =     0.000000

                    Cartesian Multipole Moments
 -----------------------------------------------------------------
    Charge (ESU x 10^10)
                -0.0000
    Dipole Moment (Debye)
         X       2.4641      Y       0.6647      Z       0.7081
       Tot       2.6486
    Quadrupole Moments (Debye-Ang)
        XX     -85.2814     XY       3.0316     YY     -72.8052
        XZ      -2.3322     YZ       2.1057     ZZ     -84.7566

 Total job time:  47.90s(wall), 1704.67s(cpu)
        *  Thank you very much for using Q-Chem.  Have a nice day.  *
