 Q-Chem 5.4, Q-Chem, Inc., Pleasanton, CA (2021)
 Q-Chem 5.4.0 for Intel X86 EM64T Linux

User input:
--------------------------------------------------------------
$molecule
0 1
C	-0.126876	-3.887800	0.713264
C	0.113784	-3.701456	-0.651267
C	0.188043	-2.345170	-1.068787
H	0.236019	-4.545233	-1.346782
C	-0.000000	-1.450135	-0.000000
S	-0.265612	-2.321334	1.504247
C	0.439357	-1.934439	-2.493059
H	0.554378	-2.819799	-3.147809
H	1.362899	-1.326210	-2.589987
H	-0.394786	-1.325374	-2.899892
H	-0.228603	-4.815326	1.287774
C	0.000000	0.000000	0.000000
C	0.143630	0.832309	1.113020
C	0.380550	2.202961	0.820578
H	0.077556	0.449877	2.142881
C	0.422995	2.447456	-0.563588
S	0.164909	0.956502	-1.464748
C	0.561888	3.252016	1.882380
H	0.485513	2.810624	2.894974
H	-0.205711	4.050482	1.808137
H	1.553045	3.746365	1.808230
H	0.586105	3.391501	-1.097114
$end

$rem
JOBTYPE		SP
EXCHANGE	HF
CORRELATION	pRIMP2
BASIS		cc-pvtz
METHOD		rimp2
AUX_BASIS	rimp2-cc-pvtz
SOLVENT_METHOD	PCM
PURECART	11111
SYMMETRY	false
MEM_TOTAL	110000
SCF_CONVERGENCE = 6
THRESH=10
GUI = 2
$end

$solvent
dielectric 4.90
$end
--------------------------------------------------------------

             Standard Nuclear Orientation (Angstroms)
    I     Atom           X                Y                Z
 ----------------------------------------------------------------
    1      C      -0.1268760000    -3.8878000000     0.7132640000
    2      C       0.1137840000    -3.7014560000    -0.6512670000
    3      C       0.1880430000    -2.3451700000    -1.0687870000
    4      H       0.2360190000    -4.5452330000    -1.3467820000
    5      C       0.0000000000    -1.4501350000     0.0000000000
    6      S      -0.2656120000    -2.3213340000     1.5042470000
    7      C       0.4393570000    -1.9344390000    -2.4930590000
    8      H       0.5543780000    -2.8197990000    -3.1478090000
    9      H       1.3628990000    -1.3262100000    -2.5899870000
   10      H      -0.3947860000    -1.3253740000    -2.8998920000
   11      H      -0.2286030000    -4.8153260000     1.2877740000
   12      C       0.0000000000     0.0000000000     0.0000000000
   13      C       0.1436300000     0.8323090000     1.1130200000
   14      C       0.3805500000     2.2029610000     0.8205780000
   15      H       0.0775560000     0.4498770000     2.1428810000
   16      C       0.4229950000     2.4474560000    -0.5635880000
   17      S       0.1649090000     0.9565020000    -1.4647480000
   18      C       0.5618880000     3.2520160000     1.8823800000
   19      H       0.4855130000     2.8106240000     2.8949740000
   20      H      -0.2057110000     4.0504820000     1.8081370000
   21      H       1.5530450000     3.7463650000     1.8082300000
   22      H       0.5861050000     3.3915010000    -1.0971140000
 ----------------------------------------------------------------

   10   -1179.6841389939      5.25e-07  Convergence criterion met
 Total energy in the final basis set =    -1179.6841389939
        RIMP2         total energy =     -1181.6649223796 a.u.

                    Orbital Energies (a.u.)
 --------------------------------------------------------------

 Alpha MOs
 -- Occupied --
-91.9856 -91.9853 -11.2842 -11.2792 -11.2732 -11.2622 -11.2535 -11.2521
-11.2439 -11.2392 -11.2299 -11.2289  -8.9854  -8.9850  -6.6663  -6.6659
 -6.6658  -6.6654  -6.6651  -6.6647  -1.1810  -1.1500  -1.0415  -1.0255
 -0.9984  -0.9526  -0.9146  -0.8956  -0.7993  -0.7650  -0.7194  -0.6960
 -0.6630  -0.6160  -0.5840  -0.5820  -0.5773  -0.5696  -0.5527  -0.5334
 -0.5235  -0.5205  -0.5111  -0.4974  -0.4901  -0.4677  -0.4509  -0.3701
 -0.3437  -0.3398  -0.2691

          Ground-State Mulliken Net Atomic Charges

     Atom                 Charge (a.u.)
  ----------------------------------------
      1 C                    -0.211722
      2 C                    -0.254186
      3 C                     0.052514
      4 H                     0.185938
      5 C                    -0.029375
      6 S                     0.009176
      7 C                    -0.321183
      8 H                     0.117494
      9 H                     0.119179
     10 H                     0.112640
     11 H                     0.207030
     12 C                     0.054054
     13 C                    -0.261746
     14 C                     0.030749
     15 H                     0.176156
     16 C                    -0.255907
     17 S                     0.020256
     18 C                    -0.270458
     19 H                     0.102822
     20 H                     0.108443
     21 H                     0.108546
     22 H                     0.199578
  ----------------------------------------
  Sum of atomic charges =     0.000000

                    Cartesian Multipole Moments
 -----------------------------------------------------------------
    Charge (ESU x 10^10)
                -0.0000
    Dipole Moment (Debye)
         X       0.5993      Y       0.0474      Z      -0.1574
       Tot       0.6214
    Quadrupole Moments (Debye-Ang)
        XX     -92.2571     XY       1.3882     YY     -68.9896
        XZ      -1.0196     YZ       3.4780     ZZ     -79.9708

 Total job time:  53.99s(wall), 1824.60s(cpu)
        *  Thank you very much for using Q-Chem.  Have a nice day.  *
