 Q-Chem 5.4, Q-Chem, Inc., Pleasanton, CA (2021)
 Q-Chem 5.4.0 for Intel X86 EM64T Linux

User input:
--------------------------------------------------------------
$molecule
0 1
C	0.126876	-3.887800	-0.713264
C	-0.113784	-3.701456	0.651267
C	-0.188043	-2.345170	1.068787
H	-0.236019	-4.545233	1.346782
C	-0.000000	-1.450135	-0.000000
S	0.265612	-2.321334	-1.504247
C	-0.439357	-1.934439	2.493059
H	-0.554378	-2.819799	3.147809
H	-1.362899	-1.326210	2.589987
H	0.394786	-1.325374	2.899892
H	0.228603	-4.815326	-1.287774
C	0.000000	0.000000	0.000000
C	0.540541	0.648986	1.113020
C	1.431046	1.717546	0.820578
H	0.292104	0.350827	2.142881
C	1.590053	1.908061	-0.563588
S	0.621066	0.745901	-1.464748
C	2.112618	2.535384	1.882380
H	1.825779	2.191315	2.894974
H	1.847090	3.610676	1.808137
H	3.218159	2.467925	1.808230
H	2.203332	2.644073	-1.097114
$end

$rem
JOBTYPE		SP
EXCHANGE	HF
CORRELATION	pRIMP2
BASIS		cc-pvtz
METHOD		rimp2
AUX_BASIS	rimp2-cc-pvtz
SOLVENT_METHOD	PCM
PURECART	11111
SYMMETRY	false
MEM_TOTAL	110000
SCF_CONVERGENCE = 6
THRESH=10
GUI = 2
$end

$solvent
dielectric 4.90
$end
--------------------------------------------------------------

             Standard Nuclear Orientation (Angstroms)
    I     Atom           X                Y                Z
 ----------------------------------------------------------------
    1      C       0.1268760000    -3.8878000000    -0.7132640000
    2      C      -0.1137840000    -3.7014560000     0.6512670000
    3      C      -0.1880430000    -2.3451700000     1.0687870000
    4      H      -0.2360190000    -4.5452330000     1.3467820000
    5      C       0.0000000000    -1.4501350000     0.0000000000
    6      S       0.2656120000    -2.3213340000    -1.5042470000
    7      C      -0.4393570000    -1.9344390000     2.4930590000
    8      H      -0.5543780000    -2.8197990000     3.1478090000
    9      H      -1.3628990000    -1.3262100000     2.5899870000
   10      H       0.3947860000    -1.3253740000     2.8998920000
   11      H       0.2286030000    -4.8153260000    -1.2877740000
   12      C       0.0000000000     0.0000000000     0.0000000000
   13      C       0.5405410000     0.6489860000     1.1130200000
   14      C       1.4310460000     1.7175460000     0.8205780000
   15      H       0.2921040000     0.3508270000     2.1428810000
   16      C       1.5900530000     1.9080610000    -0.5635880000
   17      S       0.6210660000     0.7459010000    -1.4647480000
   18      C       2.1126180000     2.5353840000     1.8823800000
   19      H       1.8257790000     2.1913150000     2.8949740000
   20      H       1.8470900000     3.6106760000     1.8081370000
   21      H       3.2181590000     2.4679250000     1.8082300000
   22      H       2.2033320000     2.6440730000    -1.0971140000
 ----------------------------------------------------------------

   10   -1179.6509226807      7.67e-07  Convergence criterion met
 Total energy in the final basis set =    -1179.6509226807
        RIMP2         total energy =     -1181.6394224959 a.u.

                    Orbital Energies (a.u.)
 --------------------------------------------------------------

 Alpha MOs
 -- Occupied --
-91.9855 -91.9808 -11.2797 -11.2774 -11.2739 -11.2631 -11.2545 -11.2511
-11.2424 -11.2405 -11.2311 -11.2291  -8.9857  -8.9808  -6.6666  -6.6660
 -6.6654  -6.6617  -6.6612  -6.6605  -1.1852  -1.1483  -1.0440  -1.0250
 -0.9959  -0.9555  -0.9126  -0.8949  -0.8005  -0.7552  -0.7293  -0.7014
 -0.6573  -0.6157  -0.5953  -0.5826  -0.5709  -0.5604  -0.5503  -0.5416
 -0.5316  -0.5208  -0.5042  -0.4895  -0.4823  -0.4729  -0.4475  -0.3706
 -0.3480  -0.3338  -0.2653

          Ground-State Mulliken Net Atomic Charges

     Atom                 Charge (a.u.)
  ----------------------------------------
      1 C                    -0.238483
      2 C                    -0.243992
      3 C                     0.038435
      4 H                     0.183520
      5 C                    -0.021167
      6 S                     0.005957
      7 C                    -0.308606
      8 H                     0.115568
      9 H                     0.111946
     10 H                     0.098420
     11 H                     0.203425
     12 C                    -0.024276
     13 C                    -0.187552
     14 C                     0.009021
     15 H                     0.197014
     16 C                    -0.210376
     17 S                     0.017336
     18 C                    -0.268275
     19 H                     0.101926
     20 H                     0.109191
     21 H                     0.108233
     22 H                     0.202735
  ----------------------------------------
  Sum of atomic charges =     0.000000

                    Cartesian Multipole Moments
 -----------------------------------------------------------------
    Charge (ESU x 10^10)
                -0.0000
    Dipole Moment (Debye)
         X       1.4268      Y       1.0025      Z       2.9990
       Tot       3.4691
    Quadrupole Moments (Debye-Ang)
        XX     -87.4946     XY       6.3559     YY     -75.2821
        XZ      -0.4341     YZ      -1.5667     ZZ     -80.2791

 Total job time:  55.24s(wall), 1931.55s(cpu)
        *  Thank you very much for using Q-Chem.  Have a nice day.  *
