 Q-Chem 5.4, Q-Chem, Inc., Pleasanton, CA (2021)
 Q-Chem 5.4.0 for Intel X86 EM64T Linux

User input:
--------------------------------------------------------------
$molecule
0 1
C	0.001092	-3.887800	-0.724460
C	0.001036	-3.701456	0.661131
C	0.000406	-2.345170	1.085203
H	0.001433	-4.545233	1.367305
C	0.000000	-1.450135	0.000000
S	0.000367	-2.321334	-1.527517
C	0.000233	-1.934439	2.531478
H	0.000656	-2.819799	3.196254
H	-0.892447	-1.326210	2.787305
H	0.892350	-1.325374	2.787282
H	0.001511	-4.815326	-1.307907
C	0.000000	0.000000	0.000000
C	0.285976	0.794723	1.113020
C	0.757308	2.103412	0.820578
H	0.154498	0.429575	2.142881
C	0.841565	2.336821	-0.563588
S	0.328498	0.913334	-1.464748
C	1.118059	3.105040	1.882380
H	0.966197	2.683616	2.894974
H	0.500773	4.024668	1.808137
H	2.180000	3.419766	1.808230
H	1.166129	3.238200	-1.097114
$end

$rem
JOBTYPE		SP
EXCHANGE	HF
CORRELATION	pRIMP2
BASIS		cc-pvtz
METHOD		rimp2
AUX_BASIS	rimp2-cc-pvtz
SOLVENT_METHOD	PCM
PURECART	11111
SYMMETRY	false
MEM_TOTAL	110000
SCF_CONVERGENCE = 6
THRESH=10
GUI = 2
$end

$solvent
dielectric 4.90
$end
--------------------------------------------------------------

             Standard Nuclear Orientation (Angstroms)
    I     Atom           X                Y                Z
 ----------------------------------------------------------------
    1      C       0.0010920000    -3.8878000000    -0.7244600000
    2      C       0.0010360000    -3.7014560000     0.6611310000
    3      C       0.0004060000    -2.3451700000     1.0852030000
    4      H       0.0014330000    -4.5452330000     1.3673050000
    5      C       0.0000000000    -1.4501350000     0.0000000000
    6      S       0.0003670000    -2.3213340000    -1.5275170000
    7      C       0.0002330000    -1.9344390000     2.5314780000
    8      H       0.0006560000    -2.8197990000     3.1962540000
    9      H      -0.8924470000    -1.3262100000     2.7873050000
   10      H       0.8923500000    -1.3253740000     2.7872820000
   11      H       0.0015110000    -4.8153260000    -1.3079070000
   12      C       0.0000000000     0.0000000000     0.0000000000
   13      C       0.2859760000     0.7947230000     1.1130200000
   14      C       0.7573080000     2.1034120000     0.8205780000
   15      H       0.1544980000     0.4295750000     2.1428810000
   16      C       0.8415650000     2.3368210000    -0.5635880000
   17      S       0.3284980000     0.9133340000    -1.4647480000
   18      C       1.1180590000     3.1050400000     1.8823800000
   19      H       0.9661970000     2.6836160000     2.8949740000
   20      H       0.5007730000     4.0246680000     1.8081370000
   21      H       2.1800000000     3.4197660000     1.8082300000
   22      H       1.1661290000     3.2382000000    -1.0971140000
 ----------------------------------------------------------------

   10   -1179.6766318484      4.74e-07  Convergence criterion met
 Total energy in the final basis set =    -1179.6766318484
        RIMP2         total energy =     -1181.6589586851 a.u.

                    Orbital Energies (a.u.)
 --------------------------------------------------------------

 Alpha MOs
 -- Occupied --
-91.9857 -91.9846 -11.2821 -11.2796 -11.2712 -11.2671 -11.2526 -11.2517
-11.2437 -11.2410 -11.2313 -11.2298  -8.9856  -8.9846  -6.6665  -6.6660
 -6.6655  -6.6653  -6.6650  -6.6643  -1.1818  -1.1502  -1.0417  -1.0276
 -0.9956  -0.9558  -0.9148  -0.8952  -0.8018  -0.7562  -0.7273  -0.7019
 -0.6609  -0.6146  -0.5925  -0.5826  -0.5704  -0.5627  -0.5513  -0.5407
 -0.5298  -0.5231  -0.5032  -0.4919  -0.4859  -0.4767  -0.4507  -0.3704
 -0.3479  -0.3370  -0.2684

          Ground-State Mulliken Net Atomic Charges

     Atom                 Charge (a.u.)
  ----------------------------------------
      1 C                    -0.217849
      2 C                    -0.249335
      3 C                     0.060163
      4 H                     0.185352
      5 C                    -0.042249
      6 S                     0.008515
      7 C                    -0.313500
      8 H                     0.119138
      9 H                     0.109510
     10 H                     0.107634
     11 H                     0.206422
     12 C                     0.036586
     13 C                    -0.250493
     14 C                     0.031389
     15 H                     0.194830
     16 C                    -0.246555
     17 S                     0.010634
     18 C                    -0.269811
     19 H                     0.101414
     20 H                     0.108730
     21 H                     0.108890
     22 H                     0.200584
  ----------------------------------------
  Sum of atomic charges =     0.000000

                    Cartesian Multipole Moments
 -----------------------------------------------------------------
    Charge (ESU x 10^10)
                -0.0000
    Dipole Moment (Debye)
         X       0.6876      Y       0.3049      Z       3.0102
       Tot       3.1027
    Quadrupole Moments (Debye-Ang)
        XX     -91.4702     XY       3.5796     YY     -69.9884
        XZ       0.4014     YZ      -1.2952     ZZ     -80.0253

 Total job time:  55.34s(wall), 1783.11s(cpu)
        *  Thank you very much for using Q-Chem.  Have a nice day.  *
