 Q-Chem 5.4, Q-Chem, Inc., Pleasanton, CA (2021)
 Q-Chem 5.4.0 for Intel X86 EM64T Linux

User input:
--------------------------------------------------------------
$molecule
0 1
C	0.554267	-3.887800	0.466510
C	-0.507121	-3.701456	-0.424173
C	-0.831575	-2.345170	-0.697244
H	-1.048337	-4.545233	-0.877789
C	0.000000	-1.450135	0.000000
S	1.169911	-2.321334	0.982150
C	-1.939374	-1.934439	-1.627024
H	-2.448894	-2.819799	-2.054010
H	-1.561545	-1.326210	-2.475299
H	-2.708773	-1.325374	-1.108051
H	1.000944	-4.815326	0.841863
C	0.000000	0.000000	0.000000
C	0.143630	0.832309	1.113020
C	0.380550	2.202961	0.820578
H	0.077556	0.449877	2.142881
C	0.422995	2.447456	-0.563588
S	0.164909	0.956502	-1.464748
C	0.561888	3.252016	1.882380
H	0.485513	2.810624	2.894974
H	-0.205711	4.050482	1.808137
H	1.553045	3.746365	1.808230
H	0.586105	3.391501	-1.097114
$end

$rem
JOBTYPE		SP
EXCHANGE	HF
CORRELATION	pRIMP2
BASIS		cc-pvtz
METHOD		rimp2
AUX_BASIS	rimp2-cc-pvtz
SOLVENT_METHOD	PCM
PURECART	11111
SYMMETRY	false
MEM_TOTAL	110000
SCF_CONVERGENCE = 6
THRESH=10
GUI = 2
$end

$solvent
dielectric 4.90
$end
--------------------------------------------------------------

             Standard Nuclear Orientation (Angstroms)
    I     Atom           X                Y                Z
 ----------------------------------------------------------------
    1      C       0.5542670000    -3.8878000000     0.4665100000
    2      C      -0.5071210000    -3.7014560000    -0.4241730000
    3      C      -0.8315750000    -2.3451700000    -0.6972440000
    4      H      -1.0483370000    -4.5452330000    -0.8777890000
    5      C       0.0000000000    -1.4501350000     0.0000000000
    6      S       1.1699110000    -2.3213340000     0.9821500000
    7      C      -1.9393740000    -1.9344390000    -1.6270240000
    8      H      -2.4488940000    -2.8197990000    -2.0540100000
    9      H      -1.5615450000    -1.3262100000    -2.4752990000
   10      H      -2.7087730000    -1.3253740000    -1.1080510000
   11      H       1.0009440000    -4.8153260000     0.8418630000
   12      C       0.0000000000     0.0000000000     0.0000000000
   13      C       0.1436300000     0.8323090000     1.1130200000
   14      C       0.3805500000     2.2029610000     0.8205780000
   15      H       0.0775560000     0.4498770000     2.1428810000
   16      C       0.4229950000     2.4474560000    -0.5635880000
   17      S       0.1649090000     0.9565020000    -1.4647480000
   18      C       0.5618880000     3.2520160000     1.8823800000
   19      H       0.4855130000     2.8106240000     2.8949740000
   20      H      -0.2057110000     4.0504820000     1.8081370000
   21      H       1.5530450000     3.7463650000     1.8082300000
   22      H       0.5861050000     3.3915010000    -1.0971140000
 ----------------------------------------------------------------

   10   -1179.6859365037      5.23e-07  Convergence criterion met
 Total energy in the final basis set =    -1179.6859365037
        RIMP2         total energy =     -1181.6643384499 a.u.

                    Orbital Energies (a.u.)
 --------------------------------------------------------------

 Alpha MOs
 -- Occupied --
-91.9865 -91.9855 -11.2808 -11.2752 -11.2725 -11.2651 -11.2525 -11.2515
-11.2427 -11.2411 -11.2293 -11.2291  -8.9859  -8.9850  -6.6668  -6.6663
 -6.6659  -6.6656  -6.6654  -6.6648  -1.1791  -1.1499  -1.0400  -1.0234
 -0.9981  -0.9527  -0.9143  -0.8931  -0.7997  -0.7599  -0.7243  -0.6940
 -0.6625  -0.6165  -0.5830  -0.5784  -0.5743  -0.5696  -0.5518  -0.5330
 -0.5261  -0.5191  -0.5077  -0.4955  -0.4885  -0.4674  -0.4587  -0.3495
 -0.3433  -0.3388  -0.2833

          Ground-State Mulliken Net Atomic Charges

     Atom                 Charge (a.u.)
  ----------------------------------------
      1 C                    -0.212379
      2 C                    -0.249038
      3 C                     0.032489
      4 H                     0.185253
      5 C                    -0.028905
      6 S                     0.023643
      7 C                    -0.291797
      8 H                     0.109626
      9 H                     0.110843
     10 H                     0.113335
     11 H                     0.204550
     12 C                     0.022882
     13 C                    -0.269565
     14 C                     0.032993
     15 H                     0.187627
     16 C                    -0.244172
     17 S                     0.025732
     18 C                    -0.271339
     19 H                     0.103031
     20 H                     0.108034
     21 H                     0.108684
     22 H                     0.198472
  ----------------------------------------
  Sum of atomic charges =     0.000000

                    Cartesian Multipole Moments
 -----------------------------------------------------------------
    Charge (ESU x 10^10)
                -0.0000
    Dipole Moment (Debye)
         X      -0.8321      Y       0.2099      Z       0.4802
       Tot       0.9833
    Quadrupole Moments (Debye-Ang)
        XX     -88.5317     XY       3.5556     YY     -68.9743
        XZ       3.5346     YZ       2.5578     ZZ     -83.9206

 Total job time:  54.04s(wall), 1838.97s(cpu)
        *  Thank you very much for using Q-Chem.  Have a nice day.  *
