 Q-Chem 5.4, Q-Chem, Inc., Pleasanton, CA (2021)
 Q-Chem 5.4.0 for Intel X86 EM64T Linux

User input:
--------------------------------------------------------------
$molecule
0 1
C	0.124726	-3.887800	0.713644
C	-0.115824	-3.701456	-0.650907
C	-0.188844	-2.345170	-1.068646
H	-0.238841	-4.545233	-1.346284
C	-0.000000	-1.450135	-0.000000
S	0.264890	-2.321334	1.504375
C	-0.439816	-1.934439	-2.492978
H	-0.555669	-2.819799	-3.147582
H	0.394879	-1.326210	-2.899931
H	-1.362799	-1.325374	-2.589982
H	0.225628	-4.815326	1.288299
C	0.000000	0.000000	0.000000
C	0.540541	0.648986	1.113020
C	1.431046	1.717546	0.820578
H	0.292104	0.350827	2.142881
C	1.590053	1.908061	-0.563588
S	0.621066	0.745901	-1.464748
C	2.112618	2.535384	1.882380
H	1.825779	2.191315	2.894974
H	1.847090	3.610676	1.808137
H	3.218159	2.467925	1.808230
H	2.203332	2.644073	-1.097114
$end

$rem
JOBTYPE		SP
EXCHANGE	HF
CORRELATION	pRIMP2
BASIS		cc-pvtz
METHOD		rimp2
AUX_BASIS	rimp2-cc-pvtz
SOLVENT_METHOD	PCM
PURECART	11111
SYMMETRY	false
MEM_TOTAL	110000
SCF_CONVERGENCE = 6
THRESH=10
GUI = 2
$end

$solvent
dielectric 4.90
$end
--------------------------------------------------------------

             Standard Nuclear Orientation (Angstroms)
    I     Atom           X                Y                Z
 ----------------------------------------------------------------
    1      C       0.1247260000    -3.8878000000     0.7136440000
    2      C      -0.1158240000    -3.7014560000    -0.6509070000
    3      C      -0.1888440000    -2.3451700000    -1.0686460000
    4      H      -0.2388410000    -4.5452330000    -1.3462840000
    5      C       0.0000000000    -1.4501350000     0.0000000000
    6      S       0.2648900000    -2.3213340000     1.5043750000
    7      C      -0.4398160000    -1.9344390000    -2.4929780000
    8      H      -0.5556690000    -2.8197990000    -3.1475820000
    9      H       0.3948790000    -1.3262100000    -2.8999310000
   10      H      -1.3627990000    -1.3253740000    -2.5899820000
   11      H       0.2256280000    -4.8153260000     1.2882990000
   12      C       0.0000000000     0.0000000000     0.0000000000
   13      C       0.5405410000     0.6489860000     1.1130200000
   14      C       1.4310460000     1.7175460000     0.8205780000
   15      H       0.2921040000     0.3508270000     2.1428810000
   16      C       1.5900530000     1.9080610000    -0.5635880000
   17      S       0.6210660000     0.7459010000    -1.4647480000
   18      C       2.1126180000     2.5353840000     1.8823800000
   19      H       1.8257790000     2.1913150000     2.8949740000
   20      H       1.8470900000     3.6106760000     1.8081370000
   21      H       3.2181590000     2.4679250000     1.8082300000
   22      H       2.2033320000     2.6440730000    -1.0971140000
 ----------------------------------------------------------------

   10   -1179.6533585017      6.86e-07  Convergence criterion met
 Total energy in the final basis set =    -1179.6533585017
        RIMP2         total energy =     -1181.6421567458 a.u.

                    Orbital Energies (a.u.)
 --------------------------------------------------------------

 Alpha MOs
 -- Occupied --
-91.9845 -91.9810 -11.2784 -11.2746 -11.2738 -11.2654 -11.2542 -11.2500
-11.2440 -11.2407 -11.2303 -11.2267  -8.9848  -8.9810  -6.6656  -6.6649
 -6.6644  -6.6620  -6.6614  -6.6607  -1.1847  -1.1483  -1.0436  -1.0232
 -0.9994  -0.9507  -0.9135  -0.8949  -0.7969  -0.7656  -0.7220  -0.6935
 -0.6593  -0.6178  -0.5847  -0.5825  -0.5780  -0.5701  -0.5513  -0.5337
 -0.5247  -0.5191  -0.5110  -0.4965  -0.4799  -0.4656  -0.4486  -0.3676
 -0.3441  -0.3386  -0.2658

          Ground-State Mulliken Net Atomic Charges

     Atom                 Charge (a.u.)
  ----------------------------------------
      1 C                    -0.227201
      2 C                    -0.248833
      3 C                     0.039997
      4 H                     0.184068
      5 C                    -0.019875
      6 S                    -0.002389
      7 C                    -0.317076
      8 H                     0.113188
      9 H                     0.112336
     10 H                     0.116851
     11 H                     0.203647
     12 C                    -0.001574
     13 C                    -0.235442
     14 C                     0.033699
     15 H                     0.182551
     16 C                    -0.230942
     17 S                     0.042556
     18 C                    -0.266493
     19 H                     0.103346
     20 H                     0.108685
     21 H                     0.108339
     22 H                     0.200562
  ----------------------------------------
  Sum of atomic charges =     0.000000

                    Cartesian Multipole Moments
 -----------------------------------------------------------------
    Charge (ESU x 10^10)
                -0.0000
    Dipole Moment (Debye)
         X       1.3492      Y       0.7685      Z      -0.0197
       Tot       1.5528
    Quadrupole Moments (Debye-Ang)
        XX     -87.6467     XY       6.2037     YY     -74.9260
        XZ       1.6420     YZ       3.3171     ZZ     -80.0331

 Total job time:  53.31s(wall), 1840.94s(cpu)
        *  Thank you very much for using Q-Chem.  Have a nice day.  *
