 Q-Chem 5.4, Q-Chem, Inc., Pleasanton, CA (2021)
 Q-Chem 5.4.0 for Intel X86 EM64T Linux

User input:
--------------------------------------------------------------
$molecule
0 1
C	-0.555670	-3.887800	0.464838
C	0.505790	-3.701456	-0.425760
C	0.831053	-2.345170	-0.697866
H	1.046496	-4.545233	-0.879984
C	0.000000	-1.450135	0.000000
S	-1.170382	-2.321334	0.981588
C	1.939074	-1.934439	-1.627381
H	2.448051	-2.819799	-2.055015
H	2.708853	-1.326210	-1.107991
H	1.561590	-1.325374	-2.475210
H	-1.002886	-4.815326	0.839549
C	0.000000	0.000000	0.000000
C	0.729909	0.424971	1.113020
C	1.932179	1.124518	0.820578
H	0.394478	0.229765	2.142881
C	2.146756	1.249161	-0.563588
S	0.838724	0.488500	-1.464748
C	2.852364	1.659924	1.882380
H	2.465145	1.434710	2.894974
H	2.970621	2.761183	1.808137
H	3.868160	1.218416	1.808230
H	2.974781	1.731032	-1.097114
$end

$rem
JOBTYPE		SP
EXCHANGE	HF
CORRELATION	pRIMP2
BASIS		cc-pvtz
METHOD		rimp2
AUX_BASIS	rimp2-cc-pvtz
SOLVENT_METHOD	PCM
PURECART	11111
SYMMETRY	false
MEM_TOTAL	110000
SCF_CONVERGENCE = 6
THRESH=10
GUI = 2
$end

$solvent
dielectric 4.90
$end
--------------------------------------------------------------

             Standard Nuclear Orientation (Angstroms)
    I     Atom           X                Y                Z
 ----------------------------------------------------------------
    1      C      -0.5556700000    -3.8878000000     0.4648380000
    2      C       0.5057900000    -3.7014560000    -0.4257600000
    3      C       0.8310530000    -2.3451700000    -0.6978660000
    4      H       1.0464960000    -4.5452330000    -0.8799840000
    5      C       0.0000000000    -1.4501350000     0.0000000000
    6      S      -1.1703820000    -2.3213340000     0.9815880000
    7      C       1.9390740000    -1.9344390000    -1.6273810000
    8      H       2.4480510000    -2.8197990000    -2.0550150000
    9      H       2.7088530000    -1.3262100000    -1.1079910000
   10      H       1.5615900000    -1.3253740000    -2.4752100000
   11      H      -1.0028860000    -4.8153260000     0.8395490000
   12      C       0.0000000000     0.0000000000     0.0000000000
   13      C       0.7299090000     0.4249710000     1.1130200000
   14      C       1.9321790000     1.1245180000     0.8205780000
   15      H       0.3944780000     0.2297650000     2.1428810000
   16      C       2.1467560000     1.2491610000    -0.5635880000
   17      S       0.8387240000     0.4885000000    -1.4647480000
   18      C       2.8523640000     1.6599240000     1.8823800000
   19      H       2.4651450000     1.4347100000     2.8949740000
   20      H       2.9706210000     2.7611830000     1.8081370000
   21      H       3.8681600000     1.2184160000     1.8082300000
   22      H       2.9747810000     1.7310320000    -1.0971140000
 ----------------------------------------------------------------

   11   -1179.5881922185      5.23e-07  Convergence criterion met
 Total energy in the final basis set =    -1179.5881922185
        RIMP2         total energy =     -1181.5916370722 a.u.

                    Orbital Energies (a.u.)
 --------------------------------------------------------------

 Alpha MOs
 -- Occupied --
-91.9794 -91.9743 -11.2895 -11.2801 -11.2653 -11.2576 -11.2546 -11.2542
-11.2375 -11.2348 -11.2319 -11.2176  -8.9813  -8.9745  -6.6617  -6.6611
 -6.6608  -6.6555  -6.6549  -6.6543  -1.1925  -1.1442  -1.0472  -1.0216
 -0.9977  -0.9519  -0.9100  -0.8937  -0.7925  -0.7605  -0.7315  -0.6952
 -0.6540  -0.6219  -0.5894  -0.5837  -0.5756  -0.5671  -0.5481  -0.5403
 -0.5242  -0.5214  -0.5113  -0.4938  -0.4649  -0.4522  -0.4426  -0.3576
 -0.3366  -0.3271  -0.2719

          Ground-State Mulliken Net Atomic Charges

     Atom                 Charge (a.u.)
  ----------------------------------------
      1 C                    -0.233896
      2 C                    -0.258276
      3 C                     0.007667
      4 H                     0.183565
      5 C                     0.014902
      6 S                    -0.014092
      7 C                    -0.287530
      8 H                     0.101410
      9 H                     0.110213
     10 H                     0.117121
     11 H                     0.198943
     12 C                    -0.145799
     13 C                    -0.090418
     14 C                    -0.022089
     15 H                     0.192934
     16 C                    -0.181522
     17 S                     0.052205
     18 C                    -0.265996
     19 H                     0.104003
     20 H                     0.107874
     21 H                     0.105456
     22 H                     0.203325
  ----------------------------------------
  Sum of atomic charges =     0.000000

                    Cartesian Multipole Moments
 -----------------------------------------------------------------
    Charge (ESU x 10^10)
                -0.0000
    Dipole Moment (Debye)
         X       4.1386      Y       1.1723      Z       0.4768
       Tot       4.3278
    Quadrupole Moments (Debye-Ang)
        XX     -79.6922     XY       4.0494     YY     -82.2588
        XZ      -2.4187     YZ       2.1886     ZZ     -82.8139

 Total job time:  61.40s(wall), 2418.02s(cpu)
        *  Thank you very much for using Q-Chem.  Have a nice day.  *
