 Q-Chem 5.4, Q-Chem, Inc., Pleasanton, CA (2021)
 Q-Chem 5.4.0 for Intel X86 EM64T Linux

User input:
--------------------------------------------------------------
$molecule
0 1
C	-0.680396	-3.887800	-0.248806
C	0.621614	-3.701456	0.225147
C	1.019896	-2.345170	0.370780
H	1.285337	-4.545233	0.466300
C	-0.000000	-1.450135	-0.000000
S	-1.435271	-2.321334	-0.522786
C	2.378891	-1.934439	0.865597
H	3.003720	-2.819799	1.092567
H	2.313975	-1.326210	1.791940
H	2.924390	-1.325374	0.114772
H	-1.228514	-4.815326	-0.448750
C	0.000000	0.000000	0.000000
C	0.070542	0.841660	1.113020
C	0.187101	2.227746	0.820578
H	0.038051	0.454925	2.142881
C	0.208076	2.475009	-0.563588
S	0.080917	0.967235	-1.464748
C	0.276318	3.288613	1.882380
H	0.238704	2.842244	2.894974
H	-0.557951	4.017140	1.808137
H	1.220618	3.867466	1.808230
H	0.288286	3.429678	-1.097114
$end

$rem
JOBTYPE		SP
EXCHANGE	HF
CORRELATION	pRIMP2
BASIS		cc-pvtz
METHOD		rimp2
AUX_BASIS	rimp2-cc-pvtz
SOLVENT_METHOD	PCM
PURECART	11111
SYMMETRY	false
MEM_TOTAL	110000
SCF_CONVERGENCE = 6
THRESH=10
GUI = 2
$end

$solvent
dielectric 4.90
$end
--------------------------------------------------------------

             Standard Nuclear Orientation (Angstroms)
    I     Atom           X                Y                Z
 ----------------------------------------------------------------
    1      C      -0.6803960000    -3.8878000000    -0.2488060000
    2      C       0.6216140000    -3.7014560000     0.2251470000
    3      C       1.0198960000    -2.3451700000     0.3707800000
    4      H       1.2853370000    -4.5452330000     0.4663000000
    5      C       0.0000000000    -1.4501350000     0.0000000000
    6      S      -1.4352710000    -2.3213340000    -0.5227860000
    7      C       2.3788910000    -1.9344390000     0.8655970000
    8      H       3.0037200000    -2.8197990000     1.0925670000
    9      H       2.3139750000    -1.3262100000     1.7919400000
   10      H       2.9243900000    -1.3253740000     0.1147720000
   11      H      -1.2285140000    -4.8153260000    -0.4487500000
   12      C       0.0000000000     0.0000000000     0.0000000000
   13      C       0.0705420000     0.8416600000     1.1130200000
   14      C       0.1871010000     2.2277460000     0.8205780000
   15      H       0.0380510000     0.4549250000     2.1428810000
   16      C       0.2080760000     2.4750090000    -0.5635880000
   17      S       0.0809170000     0.9672350000    -1.4647480000
   18      C       0.2763180000     3.2886130000     1.8823800000
   19      H       0.2387040000     2.8422440000     2.8949740000
   20      H      -0.5579510000     4.0171400000     1.8081370000
   21      H       1.2206180000     3.8674660000     1.8082300000
   22      H       0.2882860000     3.4296780000    -1.0971140000
 ----------------------------------------------------------------

   10   -1179.6858479457      5.20e-07  Convergence criterion met
 Total energy in the final basis set =    -1179.6858479457
        RIMP2         total energy =     -1181.6637593976 a.u.

                    Orbital Energies (a.u.)
 --------------------------------------------------------------

 Alpha MOs
 -- Occupied --
-91.9858 -91.9850 -11.2793 -11.2741 -11.2730 -11.2650 -11.2541 -11.2511
-11.2424 -11.2414 -11.2292 -11.2292  -8.9852  -8.9847  -6.6661  -6.6656
 -6.6655  -6.6650  -6.6649  -6.6644  -1.1780  -1.1497  -1.0393  -1.0232
 -0.9963  -0.9546  -0.9129  -0.8927  -0.8002  -0.7525  -0.7308  -0.6957
 -0.6620  -0.6163  -0.5830  -0.5797  -0.5704  -0.5675  -0.5516  -0.5317
 -0.5294  -0.5202  -0.5073  -0.4920  -0.4884  -0.4659  -0.4616  -0.3462
 -0.3389  -0.3293  -0.2967

          Ground-State Mulliken Net Atomic Charges

     Atom                 Charge (a.u.)
  ----------------------------------------
      1 C                    -0.213430
      2 C                    -0.248808
      3 C                     0.049559
      4 H                     0.185419
      5 C                    -0.043264
      6 S                     0.025491
      7 C                    -0.282016
      8 H                     0.109447
      9 H                     0.109035
     10 H                     0.112600
     11 H                     0.204286
     12 C                    -0.017346
     13 C                    -0.228289
     14 C                     0.017187
     15 H                     0.188219
     16 C                    -0.239182
     17 S                     0.025010
     18 C                    -0.271412
     19 H                     0.102639
     20 H                     0.108514
     21 H                     0.107869
     22 H                     0.198470
  ----------------------------------------
  Sum of atomic charges =     0.000000

                    Cartesian Multipole Moments
 -----------------------------------------------------------------
    Charge (ESU x 10^10)
                -0.0000
    Dipole Moment (Debye)
         X       1.5960      Y       0.2325      Z       2.0039
       Tot       2.5723
    Quadrupole Moments (Debye-Ang)
        XX     -86.8514     XY      -1.1848     YY     -68.7695
        XZ       2.2183     YZ       0.3591     ZZ     -85.9857

 Total job time:  53.01s(wall), 1819.10s(cpu)
        *  Thank you very much for using Q-Chem.  Have a nice day.  *
