 Q-Chem 5.4, Q-Chem, Inc., Pleasanton, CA (2021)
 Q-Chem 5.4.0 for Intel X86 EM64T Linux

User input:
--------------------------------------------------------------
$molecule
0 1
C	-0.248806	-3.887800	0.680396
C	0.225147	-3.701456	-0.621614
C	0.370780	-2.345170	-1.019896
H	0.466300	-4.545233	-1.285337
C	0.000000	-1.450135	0.000000
S	-0.522786	-2.321334	1.435271
C	0.865597	-1.934439	-2.378891
H	1.092567	-2.819799	-3.003720
H	1.791940	-1.326210	-2.313975
H	0.114772	-1.325374	-2.924390
H	-0.448750	-4.815326	1.228514
C	0.000000	0.000000	0.000000
C	-0.003081	0.844605	1.113020
C	-0.007772	2.235575	0.820578
H	-0.001743	0.456510	2.142881
C	-0.008427	2.483726	-0.563588
S	-0.003691	0.970607	-1.464748
C	-0.011355	3.300181	1.882380
H	-0.009922	2.852233	2.894974
H	-0.905944	3.953225	1.808137
H	0.878901	3.959133	1.808230
H	-0.011727	3.441752	-1.097114
$end

$rem
JOBTYPE		SP
EXCHANGE	HF
CORRELATION	pRIMP2
BASIS		cc-pvtz
METHOD		rimp2
AUX_BASIS	rimp2-cc-pvtz
SOLVENT_METHOD	PCM
PURECART	11111
SYMMETRY	false
MEM_TOTAL	110000
SCF_CONVERGENCE = 6
THRESH=10
GUI = 2
$end

$solvent
dielectric 4.90
$end
--------------------------------------------------------------

             Standard Nuclear Orientation (Angstroms)
    I     Atom           X                Y                Z
 ----------------------------------------------------------------
    1      C      -0.2488060000    -3.8878000000     0.6803960000
    2      C       0.2251470000    -3.7014560000    -0.6216140000
    3      C       0.3707800000    -2.3451700000    -1.0198960000
    4      H       0.4663000000    -4.5452330000    -1.2853370000
    5      C       0.0000000000    -1.4501350000     0.0000000000
    6      S      -0.5227860000    -2.3213340000     1.4352710000
    7      C       0.8655970000    -1.9344390000    -2.3788910000
    8      H       1.0925670000    -2.8197990000    -3.0037200000
    9      H       1.7919400000    -1.3262100000    -2.3139750000
   10      H       0.1147720000    -1.3253740000    -2.9243900000
   11      H      -0.4487500000    -4.8153260000     1.2285140000
   12      C       0.0000000000     0.0000000000     0.0000000000
   13      C      -0.0030810000     0.8446050000     1.1130200000
   14      C      -0.0077720000     2.2355750000     0.8205780000
   15      H      -0.0017430000     0.4565100000     2.1428810000
   16      C      -0.0084270000     2.4837260000    -0.5635880000
   17      S      -0.0036910000     0.9706070000    -1.4647480000
   18      C      -0.0113550000     3.3001810000     1.8823800000
   19      H      -0.0099220000     2.8522330000     2.8949740000
   20      H      -0.9059440000     3.9532250000     1.8081370000
   21      H       0.8789010000     3.9591330000     1.8082300000
   22      H      -0.0117270000     3.4417520000    -1.0971140000
 ----------------------------------------------------------------

   10   -1179.6867802361      5.41e-07  Convergence criterion met
 Total energy in the final basis set =    -1179.6867802361
        RIMP2         total energy =     -1181.6665041272 a.u.

                    Orbital Energies (a.u.)
 --------------------------------------------------------------

 Alpha MOs
 -- Occupied --
-91.9862 -91.9855 -11.2843 -11.2785 -11.2734 -11.2624 -11.2537 -11.2520
-11.2439 -11.2391 -11.2301 -11.2289  -8.9859  -8.9851  -6.6669  -6.6663
 -6.6660  -6.6657  -6.6655  -6.6649  -1.1805  -1.1502  -1.0411  -1.0253
 -0.9985  -0.9527  -0.9148  -0.8951  -0.7997  -0.7643  -0.7200  -0.6956
 -0.6632  -0.6161  -0.5839  -0.5805  -0.5772  -0.5697  -0.5526  -0.5335
 -0.5242  -0.5202  -0.5103  -0.4972  -0.4906  -0.4681  -0.4527  -0.3672
 -0.3435  -0.3402  -0.2712

          Ground-State Mulliken Net Atomic Charges

     Atom                 Charge (a.u.)
  ----------------------------------------
      1 C                    -0.211757
      2 C                    -0.253908
      3 C                     0.046830
      4 H                     0.185806
      5 C                    -0.027417
      6 S                     0.013508
      7 C                    -0.316930
      8 H                     0.115384
      9 H                     0.120748
     10 H                     0.111830
     11 H                     0.206583
     12 C                     0.053141
     13 C                    -0.267459
     14 C                     0.029482
     15 H                     0.178442
     16 C                    -0.253180
     17 S                     0.021236
     18 C                    -0.271560
     19 H                     0.103046
     20 H                     0.108680
     21 H                     0.108287
     22 H                     0.199208
  ----------------------------------------
  Sum of atomic charges =     0.000000

                    Cartesian Multipole Moments
 -----------------------------------------------------------------
    Charge (ESU x 10^10)
                -0.0000
    Dipole Moment (Debye)
         X       0.5384      Y       0.0476      Z      -0.0567
       Tot       0.5435
    Quadrupole Moments (Debye-Ang)
        XX     -91.9931     XY      -0.8416     YY     -68.5361
        XZ      -2.2453     YZ       3.3549     ZZ     -80.6024

 Total job time:  55.41s(wall), 1744.18s(cpu)
        *  Thank you very much for using Q-Chem.  Have a nice day.  *
