 Q-Chem 5.4, Q-Chem, Inc., Pleasanton, CA (2021)
 Q-Chem 5.4.0 for Intel X86 EM64T Linux

User input:
--------------------------------------------------------------
$molecule
0 1
C	0.363176	-3.887800	-0.626855
C	-0.329669	-3.701456	0.573074
C	-0.542250	-2.345170	0.940016
H	-0.682412	-4.545233	1.184837
C	0.000000	-1.450135	0.000000
S	0.764076	-2.321334	-1.322686
C	-1.265537	-1.934439	2.192440
H	-1.597559	-2.819799	2.768365
H	-2.166534	-1.326210	1.967653
H	-0.620843	-1.325374	2.860032
H	0.655262	-4.815326	-1.131925
C	0.000000	0.000000	0.000000
C	-0.003081	0.844605	1.113020
C	-0.007772	2.235575	0.820578
H	-0.001743	0.456510	2.142881
C	-0.008427	2.483726	-0.563588
S	-0.003691	0.970607	-1.464748
C	-0.011355	3.300181	1.882380
H	-0.009922	2.852233	2.894974
H	-0.905944	3.953225	1.808137
H	0.878901	3.959133	1.808230
H	-0.011727	3.441752	-1.097114
$end

$rem
JOBTYPE		SP
EXCHANGE	HF
CORRELATION	pRIMP2
BASIS		cc-pvtz
METHOD		rimp2
AUX_BASIS	rimp2-cc-pvtz
SOLVENT_METHOD	PCM
PURECART	11111
SYMMETRY	false
MEM_TOTAL	110000
SCF_CONVERGENCE = 6
THRESH=10
GUI = 2
$end

$solvent
dielectric 4.90
$end
--------------------------------------------------------------

             Standard Nuclear Orientation (Angstroms)
    I     Atom           X                Y                Z
 ----------------------------------------------------------------
    1      C       0.3631760000    -3.8878000000    -0.6268550000
    2      C      -0.3296690000    -3.7014560000     0.5730740000
    3      C      -0.5422500000    -2.3451700000     0.9400160000
    4      H      -0.6824120000    -4.5452330000     1.1848370000
    5      C       0.0000000000    -1.4501350000     0.0000000000
    6      S       0.7640760000    -2.3213340000    -1.3226860000
    7      C      -1.2655370000    -1.9344390000     2.1924400000
    8      H      -1.5975590000    -2.8197990000     2.7683650000
    9      H      -2.1665340000    -1.3262100000     1.9676530000
   10      H      -0.6208430000    -1.3253740000     2.8600320000
   11      H       0.6552620000    -4.8153260000    -1.1319250000
   12      C       0.0000000000     0.0000000000     0.0000000000
   13      C      -0.0030810000     0.8446050000     1.1130200000
   14      C      -0.0077720000     2.2355750000     0.8205780000
   15      H      -0.0017430000     0.4565100000     2.1428810000
   16      C      -0.0084270000     2.4837260000    -0.5635880000
   17      S      -0.0036910000     0.9706070000    -1.4647480000
   18      C      -0.0113550000     3.3001810000     1.8823800000
   19      H      -0.0099220000     2.8522330000     2.8949740000
   20      H      -0.9059440000     3.9532250000     1.8081370000
   21      H       0.8789010000     3.9591330000     1.8082300000
   22      H      -0.0117270000     3.4417520000    -1.0971140000
 ----------------------------------------------------------------

   10   -1179.6860560856      5.25e-07  Convergence criterion met
 Total energy in the final basis set =    -1179.6860560856
        RIMP2         total energy =     -1181.6653143481 a.u.

                    Orbital Energies (a.u.)
 --------------------------------------------------------------

 Alpha MOs
 -- Occupied --
-91.9864 -91.9862 -11.2834 -11.2783 -11.2730 -11.2641 -11.2538 -11.2522
-11.2441 -11.2396 -11.2307 -11.2295  -8.9860  -8.9860  -6.6669  -6.6669
 -6.6664  -6.6663  -6.6657  -6.6657  -1.1803  -1.1504  -1.0407  -1.0264
 -0.9960  -0.9559  -0.9140  -0.8944  -0.8020  -0.7553  -0.7283  -0.6996
 -0.6621  -0.6153  -0.5894  -0.5815  -0.5702  -0.5632  -0.5514  -0.5383
 -0.5299  -0.5221  -0.5047  -0.4919  -0.4891  -0.4740  -0.4552  -0.3629
 -0.3449  -0.3392  -0.2744

          Ground-State Mulliken Net Atomic Charges

     Atom                 Charge (a.u.)
  ----------------------------------------
      1 C                    -0.213564
      2 C                    -0.251393
      3 C                     0.059914
      4 H                     0.185250
      5 C                    -0.043161
      6 S                     0.014129
      7 C                    -0.302878
      8 H                     0.114495
      9 H                     0.117698
     10 H                     0.105768
     11 H                     0.205896
     12 C                     0.018199
     13 C                    -0.238434
     14 C                     0.021262
     15 H                     0.193870
     16 C                    -0.247622
     17 S                     0.013789
     18 C                    -0.272051
     19 H                     0.101882
     20 H                     0.108591
     21 H                     0.108999
     22 H                     0.199361
  ----------------------------------------
  Sum of atomic charges =     0.000000

                    Cartesian Multipole Moments
 -----------------------------------------------------------------
    Charge (ESU x 10^10)
                -0.0000
    Dipole Moment (Debye)
         X      -0.7645      Y       0.1525      Z       2.7712
       Tot       2.8788
    Quadrupole Moments (Debye-Ang)
        XX     -91.1053     XY       1.0582     YY     -68.3685
        XZ      -2.9056     YZ      -0.7983     ZZ     -81.7616

 Total job time:  54.02s(wall), 1858.06s(cpu)
        *  Thank you very much for using Q-Chem.  Have a nice day.  *
