 Q-Chem 5.4, Q-Chem, Inc., Pleasanton, CA (2021)
 Q-Chem 5.4.0 for Intel X86 EM64T Linux

User input:
--------------------------------------------------------------
$molecule
0 1
C	0.466510	-3.887800	-0.554267
C	-0.424173	-3.701456	0.507121
C	-0.697244	-2.345170	0.831575
H	-0.877789	-4.545233	1.048337
C	0.000000	-1.450135	0.000000
S	0.982150	-2.321334	-1.169911
C	-1.627024	-1.934439	1.939374
H	-2.054010	-2.819799	2.448894
H	-2.475299	-1.326210	1.561545
H	-1.108051	-1.325374	2.708773
H	0.841863	-4.815326	-1.000944
C	0.000000	0.000000	0.000000
C	0.143630	0.832309	1.113020
C	0.380550	2.202961	0.820578
H	0.077556	0.449877	2.142881
C	0.422995	2.447456	-0.563588
S	0.164909	0.956502	-1.464748
C	0.561888	3.252016	1.882380
H	0.485513	2.810624	2.894974
H	-0.205711	4.050482	1.808137
H	1.553045	3.746365	1.808230
H	0.586105	3.391501	-1.097114
$end

$rem
JOBTYPE		SP
EXCHANGE	HF
CORRELATION	pRIMP2
BASIS		cc-pvtz
METHOD		rimp2
AUX_BASIS	rimp2-cc-pvtz
SOLVENT_METHOD	PCM
PURECART	11111
SYMMETRY	false
MEM_TOTAL	110000
SCF_CONVERGENCE = 6
THRESH=10
GUI = 2
$end

$solvent
dielectric 4.90
$end
--------------------------------------------------------------

             Standard Nuclear Orientation (Angstroms)
    I     Atom           X                Y                Z
 ----------------------------------------------------------------
    1      C       0.4665100000    -3.8878000000    -0.5542670000
    2      C      -0.4241730000    -3.7014560000     0.5071210000
    3      C      -0.6972440000    -2.3451700000     0.8315750000
    4      H      -0.8777890000    -4.5452330000     1.0483370000
    5      C       0.0000000000    -1.4501350000     0.0000000000
    6      S       0.9821500000    -2.3213340000    -1.1699110000
    7      C      -1.6270240000    -1.9344390000     1.9393740000
    8      H      -2.0540100000    -2.8197990000     2.4488940000
    9      H      -2.4752990000    -1.3262100000     1.5615450000
   10      H      -1.1080510000    -1.3253740000     2.7087730000
   11      H       0.8418630000    -4.8153260000    -1.0009440000
   12      C       0.0000000000     0.0000000000     0.0000000000
   13      C       0.1436300000     0.8323090000     1.1130200000
   14      C       0.3805500000     2.2029610000     0.8205780000
   15      H       0.0775560000     0.4498770000     2.1428810000
   16      C       0.4229950000     2.4474560000    -0.5635880000
   17      S       0.1649090000     0.9565020000    -1.4647480000
   18      C       0.5618880000     3.2520160000     1.8823800000
   19      H       0.4855130000     2.8106240000     2.8949740000
   20      H      -0.2057110000     4.0504820000     1.8081370000
   21      H       1.5530450000     3.7463650000     1.8082300000
   22      H       0.5861050000     3.3915010000    -1.0971140000
 ----------------------------------------------------------------

   10   -1179.6849195133      5.10e-07  Convergence criterion met
 Total energy in the final basis set =    -1179.6849195133
        RIMP2         total energy =     -1181.6640038065 a.u.

                    Orbital Energies (a.u.)
 --------------------------------------------------------------

 Alpha MOs
 -- Occupied --
-91.9867 -91.9861 -11.2823 -11.2774 -11.2718 -11.2650 -11.2523 -11.2522
-11.2433 -11.2412 -11.2299 -11.2295  -8.9862  -8.9857  -6.6671  -6.6666
 -6.6666  -6.6661  -6.6660  -6.6655  -1.1799  -1.1502  -1.0406  -1.0250
 -0.9961  -0.9558  -0.9131  -0.8940  -0.8018  -0.7539  -0.7295  -0.6979
 -0.6618  -0.6156  -0.5874  -0.5808  -0.5700  -0.5643  -0.5517  -0.5365
 -0.5299  -0.5212  -0.5059  -0.4915  -0.4884  -0.4728  -0.4568  -0.3589
 -0.3430  -0.3388  -0.2776

          Ground-State Mulliken Net Atomic Charges

     Atom                 Charge (a.u.)
  ----------------------------------------
      1 C                    -0.214881
      2 C                    -0.249951
      3 C                     0.043915
      4 H                     0.185290
      5 C                    -0.037958
      6 S                     0.017324
      7 C                    -0.293404
      8 H                     0.111265
      9 H                     0.114115
     10 H                     0.106335
     11 H                     0.204940
     12 C                     0.006977
     13 C                    -0.220849
     14 C                     0.013352
     15 H                     0.192251
     16 C                    -0.236916
     17 S                     0.011843
     18 C                    -0.272344
     19 H                     0.102037
     20 H                     0.108392
     21 H                     0.108933
     22 H                     0.199333
  ----------------------------------------
  Sum of atomic charges =     0.000000

                    Cartesian Multipole Moments
 -----------------------------------------------------------------
    Charge (ESU x 10^10)
                -0.0000
    Dipole Moment (Debye)
         X      -0.6327      Y       0.2774      Z       2.6154
       Tot       2.7051
    Quadrupole Moments (Debye-Ang)
        XX     -89.7233     XY       3.2533     YY     -68.9990
        XZ      -3.0413     YZ      -0.5985     ZZ     -82.8391

 Total job time:  52.12s(wall), 1787.66s(cpu)
        *  Thank you very much for using Q-Chem.  Have a nice day.  *
