 Q-Chem 5.4, Q-Chem, Inc., Pleasanton, CA (2021)
 Q-Chem 5.4.0 for Intel X86 EM64T Linux

User input:
--------------------------------------------------------------
$molecule
0 1
C	0.555670	-3.887800	-0.464838
C	-0.505790	-3.701456	0.425760
C	-0.831053	-2.345170	0.697866
H	-1.046496	-4.545233	0.879984
C	-0.000000	-1.450135	-0.000000
S	1.170382	-2.321334	-0.981588
C	-1.939074	-1.934439	1.627381
H	-2.448051	-2.819799	2.055015
H	-2.708853	-1.326210	1.107991
H	-1.561590	-1.325374	2.475210
H	1.002886	-4.815326	-0.839549
C	0.000000	0.000000	0.000000
C	0.215623	0.816623	1.113020
C	0.571102	2.161411	0.820578
H	0.116470	0.441406	2.142881
C	0.634696	2.401276	-0.563588
S	0.247646	0.938489	-1.464748
C	0.843182	3.190669	1.882380
H	0.728628	2.757614	2.894974
H	0.148095	4.052998	1.808137
H	1.873652	3.596752	1.808230
H	0.879464	3.327513	-1.097114
$end

$rem
JOBTYPE		SP
EXCHANGE	HF
CORRELATION	pRIMP2
BASIS		cc-pvtz
METHOD		rimp2
AUX_BASIS	rimp2-cc-pvtz
SOLVENT_METHOD	PCM
PURECART	11111
SYMMETRY	false
MEM_TOTAL	110000
SCF_CONVERGENCE = 6
THRESH=10
GUI = 2
$end

$solvent
dielectric 4.90
$end
--------------------------------------------------------------

             Standard Nuclear Orientation (Angstroms)
    I     Atom           X                Y                Z
 ----------------------------------------------------------------
    1      C       0.5556700000    -3.8878000000    -0.4648380000
    2      C      -0.5057900000    -3.7014560000     0.4257600000
    3      C      -0.8310530000    -2.3451700000     0.6978660000
    4      H      -1.0464960000    -4.5452330000     0.8799840000
    5      C       0.0000000000    -1.4501350000     0.0000000000
    6      S       1.1703820000    -2.3213340000    -0.9815880000
    7      C      -1.9390740000    -1.9344390000     1.6273810000
    8      H      -2.4480510000    -2.8197990000     2.0550150000
    9      H      -2.7088530000    -1.3262100000     1.1079910000
   10      H      -1.5615900000    -1.3253740000     2.4752100000
   11      H       1.0028860000    -4.8153260000    -0.8395490000
   12      C       0.0000000000     0.0000000000     0.0000000000
   13      C       0.2156230000     0.8166230000     1.1130200000
   14      C       0.5711020000     2.1614110000     0.8205780000
   15      H       0.1164700000     0.4414060000     2.1428810000
   16      C       0.6346960000     2.4012760000    -0.5635880000
   17      S       0.2476460000     0.9384890000    -1.4647480000
   18      C       0.8431820000     3.1906690000     1.8823800000
   19      H       0.7286280000     2.7576140000     2.8949740000
   20      H       0.1480950000     4.0529980000     1.8081370000
   21      H       1.8736520000     3.5967520000     1.8082300000
   22      H       0.8794640000     3.3275130000    -1.0971140000
 ----------------------------------------------------------------

   10   -1179.6827086284      5.04e-07  Convergence criterion met
 Total energy in the final basis set =    -1179.6827086284
        RIMP2         total energy =     -1181.6618598391 a.u.

                    Orbital Energies (a.u.)
 --------------------------------------------------------------

 Alpha MOs
 -- Occupied --
-91.9865 -91.9856 -11.2805 -11.2762 -11.2711 -11.2660 -11.2522 -11.2512
-11.2425 -11.2425 -11.2295 -11.2293  -8.9860  -8.9852  -6.6669  -6.6664
 -6.6661  -6.6658  -6.6655  -6.6649  -1.1795  -1.1498  -1.0404  -1.0239
 -0.9961  -0.9555  -0.9125  -0.8935  -0.8012  -0.7526  -0.7306  -0.6965
 -0.6615  -0.6159  -0.5856  -0.5801  -0.5699  -0.5656  -0.5517  -0.5347
 -0.5297  -0.5203  -0.5068  -0.4916  -0.4869  -0.4711  -0.4584  -0.3548
 -0.3415  -0.3367  -0.2820

          Ground-State Mulliken Net Atomic Charges

     Atom                 Charge (a.u.)
  ----------------------------------------
      1 C                    -0.214217
      2 C                    -0.250280
      3 C                     0.041051
      4 H                     0.184920
      5 C                    -0.038544
      6 S                     0.021457
      7 C                    -0.287072
      8 H                     0.109065
      9 H                     0.111894
     10 H                     0.106962
     11 H                     0.204345
     12 C                    -0.005569
     13 C                    -0.217012
     14 C                     0.013245
     15 H                     0.191838
     16 C                    -0.231935
     17 S                     0.013807
     18 C                    -0.271965
     19 H                     0.102285
     20 H                     0.108207
     21 H                     0.108633
     22 H                     0.198887
  ----------------------------------------
  Sum of atomic charges =     0.000000

                    Cartesian Multipole Moments
 -----------------------------------------------------------------
    Charge (ESU x 10^10)
                -0.0000
    Dipole Moment (Debye)
         X      -0.6291      Y       0.3627      Z       2.4439
       Tot       2.5495
    Quadrupole Moments (Debye-Ang)
        XX     -88.2028     XY       4.4015     YY     -69.6611
        XZ      -2.9081     YZ      -0.3665     ZZ     -83.9579

 Total job time:  50.26s(wall), 1742.36s(cpu)
        *  Thank you very much for using Q-Chem.  Have a nice day.  *
