 Q-Chem 5.4, Q-Chem, Inc., Pleasanton, CA (2021)
 Q-Chem 5.4.0 for Intel X86 EM64T Linux

User input:
--------------------------------------------------------------
$molecule
0 1
C	-0.554267	-3.887800	-0.466510
C	0.507121	-3.701456	0.424173
C	0.831575	-2.345170	0.697244
H	1.048337	-4.545233	0.877789
C	-0.000000	-1.450135	-0.000000
S	-1.169911	-2.321334	-0.982150
C	1.939374	-1.934439	1.627024
H	2.448894	-2.819799	2.054010
H	1.561545	-1.326210	2.475299
H	2.708773	-1.325374	1.108051
H	-1.000944	-4.815326	-0.841863
C	0.000000	0.000000	0.000000
C	0.540541	0.648986	1.113020
C	1.431046	1.717546	0.820578
H	0.292104	0.350827	2.142881
C	1.590053	1.908061	-0.563588
S	0.621066	0.745901	-1.464748
C	2.112618	2.535384	1.882380
H	1.825779	2.191315	2.894974
H	1.847090	3.610676	1.808137
H	3.218159	2.467925	1.808230
H	2.203332	2.644073	-1.097114
$end

$rem
JOBTYPE		SP
EXCHANGE	HF
CORRELATION	pRIMP2
BASIS		cc-pvtz
METHOD		rimp2
AUX_BASIS	rimp2-cc-pvtz
SOLVENT_METHOD	PCM
PURECART	11111
SYMMETRY	false
MEM_TOTAL	110000
SCF_CONVERGENCE = 6
THRESH=10
GUI = 2
$end

$solvent
dielectric 4.90
$end
--------------------------------------------------------------

             Standard Nuclear Orientation (Angstroms)
    I     Atom           X                Y                Z
 ----------------------------------------------------------------
    1      C      -0.5542670000    -3.8878000000    -0.4665100000
    2      C       0.5071210000    -3.7014560000     0.4241730000
    3      C       0.8315750000    -2.3451700000     0.6972440000
    4      H       1.0483370000    -4.5452330000     0.8777890000
    5      C       0.0000000000    -1.4501350000     0.0000000000
    6      S      -1.1699110000    -2.3213340000    -0.9821500000
    7      C       1.9393740000    -1.9344390000     1.6270240000
    8      H       2.4488940000    -2.8197990000     2.0540100000
    9      H       1.5615450000    -1.3262100000     2.4752990000
   10      H       2.7087730000    -1.3253740000     1.1080510000
   11      H      -1.0009440000    -4.8153260000    -0.8418630000
   12      C       0.0000000000     0.0000000000     0.0000000000
   13      C       0.5405410000     0.6489860000     1.1130200000
   14      C       1.4310460000     1.7175460000     0.8205780000
   15      H       0.2921040000     0.3508270000     2.1428810000
   16      C       1.5900530000     1.9080610000    -0.5635880000
   17      S       0.6210660000     0.7459010000    -1.4647480000
   18      C       2.1126180000     2.5353840000     1.8823800000
   19      H       1.8257790000     2.1913150000     2.8949740000
   20      H       1.8470900000     3.6106760000     1.8081370000
   21      H       3.2181590000     2.4679250000     1.8082300000
   22      H       2.2033320000     2.6440730000    -1.0971140000
 ----------------------------------------------------------------

   10   -1179.6550344929      7.26e-07  Convergence criterion met
 Total energy in the final basis set =    -1179.6550344929
        RIMP2         total energy =     -1181.6427039580 a.u.

                    Orbital Energies (a.u.)
 --------------------------------------------------------------

 Alpha MOs
 -- Occupied --
-91.9836 -91.9793 -11.2759 -11.2749 -11.2684 -11.2676 -11.2527 -11.2501
-11.2485 -11.2407 -11.2307 -11.2273  -8.9836  -8.9794  -6.6644  -6.6638
 -6.6632  -6.6603  -6.6597  -6.6592  -1.1825  -1.1482  -1.0419  -1.0225
 -0.9962  -0.9536  -0.9132  -0.8924  -0.7969  -0.7523  -0.7335  -0.6986
 -0.6578  -0.6170  -0.5888  -0.5811  -0.5708  -0.5629  -0.5494  -0.5368
 -0.5267  -0.5233  -0.5086  -0.4903  -0.4755  -0.4655  -0.4567  -0.3476
 -0.3417  -0.3388  -0.2811

          Ground-State Mulliken Net Atomic Charges

     Atom                 Charge (a.u.)
  ----------------------------------------
      1 C                    -0.213208
      2 C                    -0.256687
      3 C                     0.052804
      4 H                     0.184658
      5 C                    -0.013829
      6 S                     0.007614
      7 C                    -0.297282
      8 H                     0.114610
      9 H                     0.106703
     10 H                     0.116843
     11 H                     0.203117
     12 C                    -0.066296
     13 C                    -0.234246
     14 C                     0.035583
     15 H                     0.191679
     16 C                    -0.218035
     17 S                     0.033447
     18 C                    -0.269999
     19 H                     0.103009
     20 H                     0.111375
     21 H                     0.107410
     22 H                     0.200731
  ----------------------------------------
  Sum of atomic charges =     0.000000

                    Cartesian Multipole Moments
 -----------------------------------------------------------------
    Charge (ESU x 10^10)
                -0.0000
    Dipole Moment (Debye)
         X       2.8070      Y       0.6154      Z       2.6332
       Tot       3.8977
    Quadrupole Moments (Debye-Ang)
        XX     -84.1998     XY       4.0296     YY     -74.2833
        XZ       3.7188     YZ      -0.6992     ZZ     -83.8963

 Total job time:  60.09s(wall), 2025.52s(cpu)
        *  Thank you very much for using Q-Chem.  Have a nice day.  *
