 Q-Chem 5.4, Q-Chem, Inc., Pleasanton, CA (2021)
 Q-Chem 5.4.0 for Intel X86 EM64T Linux

User input:
--------------------------------------------------------------
$molecule
0 1
C	0.724460	-3.887800	0.001092
C	-0.661131	-3.701456	0.001036
C	-1.085203	-2.345170	0.000406
H	-1.367305	-4.545233	0.001433
C	-0.000000	-1.450135	-0.000000
S	1.527517	-2.321334	0.000367
C	-2.531478	-1.934439	0.000233
H	-3.196254	-2.819799	0.000656
H	-2.787305	-1.326210	-0.892447
H	-2.787282	-1.325374	0.892350
H	1.307907	-4.815326	0.001511
C	0.000000	0.000000	0.000000
C	0.070542	0.841660	1.113020
C	0.187101	2.227746	0.820578
H	0.038051	0.454925	2.142881
C	0.208076	2.475009	-0.563588
S	0.080917	0.967235	-1.464748
C	0.276318	3.288613	1.882380
H	0.238704	2.842244	2.894974
H	-0.557951	4.017140	1.808137
H	1.220618	3.867466	1.808230
H	0.288286	3.429678	-1.097114
$end

$rem
JOBTYPE		SP
EXCHANGE	HF
CORRELATION	pRIMP2
BASIS		cc-pvtz
METHOD		rimp2
AUX_BASIS	rimp2-cc-pvtz
SOLVENT_METHOD	PCM
PURECART	11111
SYMMETRY	false
MEM_TOTAL	110000
SCF_CONVERGENCE = 6
THRESH=10
GUI = 2
$end

$solvent
dielectric 4.90
$end
--------------------------------------------------------------

             Standard Nuclear Orientation (Angstroms)
    I     Atom           X                Y                Z
 ----------------------------------------------------------------
    1      C       0.7244600000    -3.8878000000     0.0010920000
    2      C      -0.6611310000    -3.7014560000     0.0010360000
    3      C      -1.0852030000    -2.3451700000     0.0004060000
    4      H      -1.3673050000    -4.5452330000     0.0014330000
    5      C       0.0000000000    -1.4501350000     0.0000000000
    6      S       1.5275170000    -2.3213340000     0.0003670000
    7      C      -2.5314780000    -1.9344390000     0.0002330000
    8      H      -3.1962540000    -2.8197990000     0.0006560000
    9      H      -2.7873050000    -1.3262100000    -0.8924470000
   10      H      -2.7872820000    -1.3253740000     0.8923500000
   11      H       1.3079070000    -4.8153260000     0.0015110000
   12      C       0.0000000000     0.0000000000     0.0000000000
   13      C       0.0705420000     0.8416600000     1.1130200000
   14      C       0.1871010000     2.2277460000     0.8205780000
   15      H       0.0380510000     0.4549250000     2.1428810000
   16      C       0.2080760000     2.4750090000    -0.5635880000
   17      S       0.0809170000     0.9672350000    -1.4647480000
   18      C       0.2763180000     3.2886130000     1.8823800000
   19      H       0.2387040000     2.8422440000     2.8949740000
   20      H      -0.5579510000     4.0171400000     1.8081370000
   21      H       1.2206180000     3.8674660000     1.8082300000
   22      H       0.2882860000     3.4296780000    -1.0971140000
 ----------------------------------------------------------------

   10   -1179.6854745270      5.08e-07  Convergence criterion met
 Total energy in the final basis set =    -1179.6854745270
        RIMP2         total energy =     -1181.6629066039 a.u.

                    Orbital Energies (a.u.)
 --------------------------------------------------------------

 Alpha MOs
 -- Occupied --
-91.9855 -91.9853 -11.2788 -11.2731 -11.2730 -11.2651 -11.2537 -11.2508
-11.2420 -11.2418 -11.2292 -11.2290  -8.9849  -8.9848  -6.6658  -6.6657
 -6.6653  -6.6651  -6.6647  -6.6645  -1.1777  -1.1496  -1.0390  -1.0228
 -0.9967  -0.9539  -0.9132  -0.8924  -0.7999  -0.7535  -0.7298  -0.6946
 -0.6622  -0.6165  -0.5824  -0.5791  -0.5706  -0.5690  -0.5515  -0.5308
 -0.5293  -0.5195  -0.5070  -0.4923  -0.4888  -0.4642  -0.4632  -0.3465
 -0.3378  -0.3130  -0.3122

          Ground-State Mulliken Net Atomic Charges

     Atom                 Charge (a.u.)
  ----------------------------------------
      1 C                    -0.209861
      2 C                    -0.249721
      3 C                     0.048352
      4 H                     0.185105
      5 C                    -0.053772
      6 S                     0.025683
      7 C                    -0.282308
      8 H                     0.107203
      9 H                     0.110362
     10 H                     0.109823
     11 H                     0.204157
     12 C                    -0.006737
     13 C                    -0.225506
     14 C                     0.017444
     15 H                     0.185351
     16 C                    -0.237745
     17 S                     0.026143
     18 C                    -0.271179
     19 H                     0.102841
     20 H                     0.107790
     21 H                     0.108344
     22 H                     0.198231
  ----------------------------------------
  Sum of atomic charges =     0.000000

                    Cartesian Multipole Moments
 -----------------------------------------------------------------
    Charge (ESU x 10^10)
                -0.0000
    Dipole Moment (Debye)
         X      -1.3541      Y       0.2392      Z       1.4733
       Tot       2.0153
    Quadrupole Moments (Debye-Ang)
        XX     -86.0383     XY       3.1523     YY     -68.8002
        XZ       0.1175     YZ       1.1294     ZZ     -86.7471

 Total job time:  54.96s(wall), 1806.60s(cpu)
        *  Thank you very much for using Q-Chem.  Have a nice day.  *
