 Q-Chem 5.4, Q-Chem, Inc., Pleasanton, CA (2021)
 Q-Chem 5.4.0 for Intel X86 EM64T Linux

User input:
--------------------------------------------------------------
$molecule
0 1
C	-0.627947	-3.887800	0.361285
C	0.572038	-3.701456	-0.331462
C	0.939610	-2.345170	-0.542953
H	1.183405	-4.545233	-0.684893
C	0.000000	-1.450135	0.000000
S	-1.323052	-2.321334	0.763441
C	2.192207	-1.934439	-1.265941
H	2.767709	-2.819799	-1.598695
H	2.860100	-1.326210	-0.620770
H	1.967682	-1.325374	-2.166438
H	-1.133436	-4.815326	0.652645
C	0.000000	0.000000	0.000000
C	0.729909	0.424971	1.113020
C	1.932179	1.124518	0.820578
H	0.394478	0.229765	2.142881
C	2.146756	1.249161	-0.563588
S	0.838724	0.488500	-1.464748
C	2.852364	1.659924	1.882380
H	2.465145	1.434710	2.894974
H	2.970621	2.761183	1.808137
H	3.868160	1.218416	1.808230
H	2.974781	1.731032	-1.097114
$end

$rem
JOBTYPE		SP
EXCHANGE	HF
CORRELATION	pRIMP2
BASIS		cc-pvtz
METHOD		rimp2
AUX_BASIS	rimp2-cc-pvtz
SOLVENT_METHOD	PCM
PURECART	11111
SYMMETRY	false
MEM_TOTAL	110000
SCF_CONVERGENCE = 6
THRESH=10
GUI = 2
$end

$solvent
dielectric 4.90
$end
--------------------------------------------------------------

             Standard Nuclear Orientation (Angstroms)
    I     Atom           X                Y                Z
 ----------------------------------------------------------------
    1      C      -0.6279470000    -3.8878000000     0.3612850000
    2      C       0.5720380000    -3.7014560000    -0.3314620000
    3      C       0.9396100000    -2.3451700000    -0.5429530000
    4      H       1.1834050000    -4.5452330000    -0.6848930000
    5      C       0.0000000000    -1.4501350000     0.0000000000
    6      S      -1.3230520000    -2.3213340000     0.7634410000
    7      C       2.1922070000    -1.9344390000    -1.2659410000
    8      H       2.7677090000    -2.8197990000    -1.5986950000
    9      H       2.8601000000    -1.3262100000    -0.6207700000
   10      H       1.9676820000    -1.3253740000    -2.1664380000
   11      H      -1.1334360000    -4.8153260000     0.6526450000
   12      C       0.0000000000     0.0000000000     0.0000000000
   13      C       0.7299090000     0.4249710000     1.1130200000
   14      C       1.9321790000     1.1245180000     0.8205780000
   15      H       0.3944780000     0.2297650000     2.1428810000
   16      C       2.1467560000     1.2491610000    -0.5635880000
   17      S       0.8387240000     0.4885000000    -1.4647480000
   18      C       2.8523640000     1.6599240000     1.8823800000
   19      H       2.4651450000     1.4347100000     2.8949740000
   20      H       2.9706210000     2.7611830000     1.8081370000
   21      H       3.8681600000     1.2184160000     1.8082300000
   22      H       2.9747810000     1.7310320000    -1.0971140000
 ----------------------------------------------------------------

   11   -1179.5962508646      5.00e-07  Convergence criterion met
 Total energy in the final basis set =    -1179.5962508646
        RIMP2         total energy =     -1181.5984766874 a.u.

                    Orbital Energies (a.u.)
 --------------------------------------------------------------

 Alpha MOs
 -- Occupied --
-91.9803 -91.9744 -11.2895 -11.2785 -11.2664 -11.2584 -11.2547 -11.2530
-11.2374 -11.2358 -11.2321 -11.2175  -8.9816  -8.9745  -6.6622  -6.6614
 -6.6614  -6.6554  -6.6548  -6.6543  -1.1920  -1.1443  -1.0467  -1.0191
 -0.9989  -0.9522  -0.9110  -0.8914  -0.7932  -0.7582  -0.7337  -0.6946
 -0.6541  -0.6218  -0.5879  -0.5837  -0.5750  -0.5661  -0.5478  -0.5398
 -0.5241  -0.5218  -0.5118  -0.4915  -0.4646  -0.4576  -0.4408  -0.3549
 -0.3361  -0.3268  -0.2772

          Ground-State Mulliken Net Atomic Charges

     Atom                 Charge (a.u.)
  ----------------------------------------
      1 C                    -0.231314
      2 C                    -0.259494
      3 C                     0.023101
      4 H                     0.183299
      5 C                     0.012522
      6 S                    -0.011453
      7 C                    -0.309857
      8 H                     0.107393
      9 H                     0.113689
     10 H                     0.121692
     11 H                     0.198707
     12 C                    -0.155321
     13 C                    -0.087349
     14 C                    -0.028383
     15 H                     0.192404
     16 C                    -0.166645
     17 S                     0.043634
     18 C                    -0.266945
     19 H                     0.104066
     20 H                     0.109041
     21 H                     0.105268
     22 H                     0.201947
  ----------------------------------------
  Sum of atomic charges =     0.000000

                    Cartesian Multipole Moments
 -----------------------------------------------------------------
    Charge (ESU x 10^10)
                -0.0000
    Dipole Moment (Debye)
         X       4.2928      Y       1.1160      Z       0.7915
       Tot       4.5056
    Quadrupole Moments (Debye-Ang)
        XX     -78.7990     XY       3.8127     YY     -81.8875
        XZ      -2.0570     YZ       1.9451     ZZ     -83.8457

 Total job time:  54.35s(wall), 1948.28s(cpu)
        *  Thank you very much for using Q-Chem.  Have a nice day.  *
