 Q-Chem 5.4, Q-Chem, Inc., Pleasanton, CA (2021)
 Q-Chem 5.4.0 for Intel X86 EM64T Linux

User input:
--------------------------------------------------------------
$molecule
0 1
C	0.674034	-3.828925	0.724460
C	0.641731	-3.645403	-0.661131
C	0.406834	-2.309612	-1.085203
H	0.787861	-4.476429	-1.367305
C	0.251813	-1.428104	0.000000
S	0.402734	-2.286131	1.527517
C	0.335682	-1.905091	-2.531478
H	0.489007	-2.777074	-3.196254
H	1.109183	-1.151090	-2.787305
H	-0.648644	-1.460194	-2.787282
H	0.834685	-4.742433	1.307907
C	0.000000	0.000000	0.000000
C	0.419634	0.732990	1.113020
C	1.111057	1.939951	0.820578
H	0.226746	0.396221	2.142881
C	1.234565	2.155183	-0.563588
S	0.482106	0.842416	-1.464748
C	1.640257	2.863718	1.882380
H	1.417524	2.475067	2.894974
H	1.192042	3.876565	1.808137
H	2.740717	2.989259	1.808230
H	1.710720	2.986508	-1.097114
$end

$rem
JOBTYPE		SP
EXCHANGE	HF
CORRELATION	pRIMP2
BASIS		cc-pvtz
METHOD		rimp2
AUX_BASIS	rimp2-cc-pvtz
SOLVENT_METHOD	PCM
PURECART	11111
SYMMETRY	false
MEM_TOTAL	110000
SCF_CONVERGENCE = 6
THRESH=10
GUI = 2
$end

$solvent
dielectric 4.90
$end
--------------------------------------------------------------

             Standard Nuclear Orientation (Angstroms)
    I     Atom           X                Y                Z
 ----------------------------------------------------------------
    1      C       0.6740340000    -3.8289250000     0.7244600000
    2      C       0.6417310000    -3.6454030000    -0.6611310000
    3      C       0.4068340000    -2.3096120000    -1.0852030000
    4      H       0.7878610000    -4.4764290000    -1.3673050000
    5      C       0.2518130000    -1.4281040000     0.0000000000
    6      S       0.4027340000    -2.2861310000     1.5275170000
    7      C       0.3356820000    -1.9050910000    -2.5314780000
    8      H       0.4890070000    -2.7770740000    -3.1962540000
    9      H       1.1091830000    -1.1510900000    -2.7873050000
   10      H      -0.6486440000    -1.4601940000    -2.7872820000
   11      H       0.8346850000    -4.7424330000     1.3079070000
   12      C       0.0000000000     0.0000000000     0.0000000000
   13      C       0.4196340000     0.7329900000     1.1130200000
   14      C       1.1110570000     1.9399510000     0.8205780000
   15      H       0.2267460000     0.3962210000     2.1428810000
   16      C       1.2345650000     2.1551830000    -0.5635880000
   17      S       0.4821060000     0.8424160000    -1.4647480000
   18      C       1.6402570000     2.8637180000     1.8823800000
   19      H       1.4175240000     2.4750670000     2.8949740000
   20      H       1.1920420000     3.8765650000     1.8081370000
   21      H       2.7407170000     2.9892590000     1.8082300000
   22      H       1.7107200000     2.9865080000    -1.0971140000
 ----------------------------------------------------------------

   10   -1179.6503482038      7.47e-07  Convergence criterion met
 Total energy in the final basis set =    -1179.6503482038
        RIMP2         total energy =     -1181.6401253578 a.u.

                    Orbital Energies (a.u.)
 --------------------------------------------------------------

 Alpha MOs
 -- Occupied --
-91.9839 -91.9803 -11.2793 -11.2741 -11.2738 -11.2654 -11.2537 -11.2497
-11.2440 -11.2408 -11.2301 -11.2257  -8.9843  -8.9805  -6.6650  -6.6644
 -6.6638  -6.6614  -6.6609  -6.6602  -1.1847  -1.1481  -1.0437  -1.0234
 -0.9988  -0.9509  -0.9128  -0.8955  -0.7963  -0.7657  -0.7216  -0.6943
 -0.6590  -0.6175  -0.5853  -0.5829  -0.5779  -0.5698  -0.5513  -0.5333
 -0.5236  -0.5206  -0.5116  -0.4963  -0.4795  -0.4643  -0.4469  -0.3698
 -0.3421  -0.3388  -0.2648

          Ground-State Mulliken Net Atomic Charges

     Atom                 Charge (a.u.)
  ----------------------------------------
      1 C                    -0.224981
      2 C                    -0.250636
      3 C                     0.045815
      4 H                     0.184314
      5 C                    -0.028413
      6 S                    -0.007115
      7 C                    -0.314755
      8 H                     0.112271
      9 H                     0.115336
     10 H                     0.114337
     11 H                     0.203759
     12 C                    -0.001726
     13 C                    -0.217243
     14 C                     0.026288
     15 H                     0.180490
     16 C                    -0.232007
     17 S                     0.041013
     18 C                    -0.266808
     19 H                     0.103276
     20 H                     0.108532
     21 H                     0.107772
     22 H                     0.200482
  ----------------------------------------
  Sum of atomic charges =     0.000000

                    Cartesian Multipole Moments
 -----------------------------------------------------------------
    Charge (ESU x 10^10)
                -0.0000
    Dipole Moment (Debye)
         X       1.4642      Y       1.0347      Z      -0.1031
       Tot       1.7959
    Quadrupole Moments (Debye-Ang)
        XX     -89.3925     XY       3.1687     YY     -73.6319
        XZ      -0.1243     YZ       3.3304     ZZ     -79.8249

 Total job time:  55.33s(wall), 1962.04s(cpu)
        *  Thank you very much for using Q-Chem.  Have a nice day.  *
