 Q-Chem 5.4, Q-Chem, Inc., Pleasanton, CA (2021)
 Q-Chem 5.4.0 for Intel X86 EM64T Linux

User input:
--------------------------------------------------------------
$molecule
0 1
C	0.464838	-3.887800	0.555670
C	-0.425760	-3.701456	-0.505790
C	-0.697866	-2.345170	-0.831053
H	-0.879984	-4.545233	-1.046496
C	0.000000	-1.450135	0.000000
S	0.981588	-2.321334	1.170382
C	-1.627381	-1.934439	-1.939074
H	-2.055015	-2.819799	-2.448051
H	-1.107991	-1.326210	-2.708853
H	-2.475210	-1.325374	-1.561590
H	0.839549	-4.815326	1.002886
C	0.000000	0.000000	0.000000
C	-0.003081	0.844605	1.113020
C	-0.007772	2.235575	0.820578
H	-0.001743	0.456510	2.142881
C	-0.008427	2.483726	-0.563588
S	-0.003691	0.970607	-1.464748
C	-0.011355	3.300181	1.882380
H	-0.009922	2.852233	2.894974
H	-0.905944	3.953225	1.808137
H	0.878901	3.959133	1.808230
H	-0.011727	3.441752	-1.097114
$end

$rem
JOBTYPE		SP
EXCHANGE	HF
CORRELATION	pRIMP2
BASIS		cc-pvtz
METHOD		rimp2
AUX_BASIS	rimp2-cc-pvtz
SOLVENT_METHOD	PCM
PURECART	11111
SYMMETRY	false
MEM_TOTAL	110000
SCF_CONVERGENCE = 6
THRESH=10
GUI = 2
$end

$solvent
dielectric 4.90
$end
--------------------------------------------------------------

             Standard Nuclear Orientation (Angstroms)
    I     Atom           X                Y                Z
 ----------------------------------------------------------------
    1      C       0.4648380000    -3.8878000000     0.5556700000
    2      C      -0.4257600000    -3.7014560000    -0.5057900000
    3      C      -0.6978660000    -2.3451700000    -0.8310530000
    4      H      -0.8799840000    -4.5452330000    -1.0464960000
    5      C       0.0000000000    -1.4501350000     0.0000000000
    6      S       0.9815880000    -2.3213340000     1.1703820000
    7      C      -1.6273810000    -1.9344390000    -1.9390740000
    8      H      -2.0550150000    -2.8197990000    -2.4480510000
    9      H      -1.1079910000    -1.3262100000    -2.7088530000
   10      H      -2.4752100000    -1.3253740000    -1.5615900000
   11      H       0.8395490000    -4.8153260000     1.0028860000
   12      C       0.0000000000     0.0000000000     0.0000000000
   13      C      -0.0030810000     0.8446050000     1.1130200000
   14      C      -0.0077720000     2.2355750000     0.8205780000
   15      H      -0.0017430000     0.4565100000     2.1428810000
   16      C      -0.0084270000     2.4837260000    -0.5635880000
   17      S      -0.0036910000     0.9706070000    -1.4647480000
   18      C      -0.0113550000     3.3001810000     1.8823800000
   19      H      -0.0099220000     2.8522330000     2.8949740000
   20      H      -0.9059440000     3.9532250000     1.8081370000
   21      H       0.8789010000     3.9591330000     1.8082300000
   22      H      -0.0117270000     3.4417520000    -1.0971140000
 ----------------------------------------------------------------

   10   -1179.6869306736      5.26e-07  Convergence criterion met
 Total energy in the final basis set =    -1179.6869306736
        RIMP2         total energy =     -1181.6657324548 a.u.

                    Orbital Energies (a.u.)
 --------------------------------------------------------------

 Alpha MOs
 -- Occupied --
-91.9864 -91.9855 -11.2826 -11.2768 -11.2727 -11.2639 -11.2529 -11.2516
-11.2432 -11.2404 -11.2292 -11.2290  -8.9860  -8.9851  -6.6669  -6.6663
 -6.6660  -6.6657  -6.6655  -6.6648  -1.1795  -1.1500  -1.0404  -1.0238
 -0.9983  -0.9529  -0.9143  -0.8938  -0.7997  -0.7616  -0.7227  -0.6948
 -0.6626  -0.6163  -0.5833  -0.5778  -0.5763  -0.5697  -0.5520  -0.5330
 -0.5258  -0.5194  -0.5089  -0.4960  -0.4892  -0.4678  -0.4565  -0.3575
 -0.3428  -0.3393  -0.2780

          Ground-State Mulliken Net Atomic Charges

     Atom                 Charge (a.u.)
  ----------------------------------------
      1 C                    -0.214466
      2 C                    -0.249196
      3 C                     0.031664
      4 H                     0.185612
      5 C                    -0.026979
      6 S                     0.021137
      7 C                    -0.301765
      8 H                     0.111163
      9 H                     0.112459
     10 H                     0.117337
     11 H                     0.205024
     12 C                     0.028835
     13 C                    -0.253433
     14 C                     0.022811
     15 H                     0.185038
     16 C                    -0.244421
     17 S                     0.022202
     18 C                    -0.271567
     19 H                     0.103114
     20 H                     0.108129
     21 H                     0.108490
     22 H                     0.198812
  ----------------------------------------
  Sum of atomic charges =     0.000000

                    Cartesian Multipole Moments
 -----------------------------------------------------------------
    Charge (ESU x 10^10)
                -0.0000
    Dipole Moment (Debye)
         X      -0.9944      Y       0.1747      Z       0.2569
       Tot       1.0418
    Quadrupole Moments (Debye-Ang)
        XX     -90.0179     XY       1.4071     YY     -68.6991
        XZ       3.3526     YZ       2.8537     ZZ     -82.7075

 Total job time:  55.97s(wall), 1812.21s(cpu)
        *  Thank you very much for using Q-Chem.  Have a nice day.  *
