 Q-Chem 5.4, Q-Chem, Inc., Pleasanton, CA (2021)
 Q-Chem 5.4.0 for Intel X86 EM64T Linux

User input:
--------------------------------------------------------------
$molecule
0 1
C	0.001092	-3.887800	-0.724460
C	0.001036	-3.701456	0.661131
C	0.000406	-2.345170	1.085203
H	0.001433	-4.545233	1.367305
C	-0.000000	-1.450135	-0.000000
S	0.000367	-2.321334	-1.527517
C	0.000233	-1.934439	2.531478
H	0.000656	-2.819799	3.196254
H	-0.892447	-1.326210	2.787305
H	0.892350	-1.325374	2.787282
H	0.001511	-4.815326	-1.307907
C	0.000000	0.000000	0.000000
C	0.215623	0.816623	1.113020
C	0.571102	2.161411	0.820578
H	0.116470	0.441406	2.142881
C	0.634696	2.401276	-0.563588
S	0.247646	0.938489	-1.464748
C	0.843182	3.190669	1.882380
H	0.728628	2.757614	2.894974
H	0.148095	4.052998	1.808137
H	1.873652	3.596752	1.808230
H	0.879464	3.327513	-1.097114
$end

$rem
JOBTYPE		SP
EXCHANGE	HF
CORRELATION	pRIMP2
BASIS		cc-pvtz
METHOD		rimp2
AUX_BASIS	rimp2-cc-pvtz
SOLVENT_METHOD	PCM
PURECART	11111
SYMMETRY	false
MEM_TOTAL	110000
SCF_CONVERGENCE = 6
THRESH=10
GUI = 2
$end

$solvent
dielectric 4.90
$end
--------------------------------------------------------------

             Standard Nuclear Orientation (Angstroms)
    I     Atom           X                Y                Z
 ----------------------------------------------------------------
    1      C       0.0010920000    -3.8878000000    -0.7244600000
    2      C       0.0010360000    -3.7014560000     0.6611310000
    3      C       0.0004060000    -2.3451700000     1.0852030000
    4      H       0.0014330000    -4.5452330000     1.3673050000
    5      C       0.0000000000    -1.4501350000     0.0000000000
    6      S       0.0003670000    -2.3213340000    -1.5275170000
    7      C       0.0002330000    -1.9344390000     2.5314780000
    8      H       0.0006560000    -2.8197990000     3.1962540000
    9      H      -0.8924470000    -1.3262100000     2.7873050000
   10      H       0.8923500000    -1.3253740000     2.7872820000
   11      H       0.0015110000    -4.8153260000    -1.3079070000
   12      C       0.0000000000     0.0000000000     0.0000000000
   13      C       0.2156230000     0.8166230000     1.1130200000
   14      C       0.5711020000     2.1614110000     0.8205780000
   15      H       0.1164700000     0.4414060000     2.1428810000
   16      C       0.6346960000     2.4012760000    -0.5635880000
   17      S       0.2476460000     0.9384890000    -1.4647480000
   18      C       0.8431820000     3.1906690000     1.8823800000
   19      H       0.7286280000     2.7576140000     2.8949740000
   20      H       0.1480950000     4.0529980000     1.8081370000
   21      H       1.8736520000     3.5967520000     1.8082300000
   22      H       0.8794640000     3.3275130000    -1.0971140000
 ----------------------------------------------------------------

   10   -1179.6803774730      4.87e-07  Convergence criterion met
 Total energy in the final basis set =    -1179.6803774730
        RIMP2         total energy =     -1181.6616804640 a.u.

                    Orbital Energies (a.u.)
 --------------------------------------------------------------

 Alpha MOs
 -- Occupied --
-91.9859 -91.9853 -11.2832 -11.2797 -11.2722 -11.2657 -11.2528 -11.2524
-11.2441 -11.2398 -11.2316 -11.2297  -8.9856  -8.9852  -6.6666  -6.6662
 -6.6661  -6.6656  -6.6654  -6.6650  -1.1815  -1.1504  -1.0415  -1.0279
 -0.9956  -0.9559  -0.9151  -0.8952  -0.8021  -0.7564  -0.7270  -0.7018
 -0.6614  -0.6146  -0.5921  -0.5826  -0.5702  -0.5630  -0.5514  -0.5406
 -0.5298  -0.5233  -0.5031  -0.4920  -0.4873  -0.4769  -0.4511  -0.3704
 -0.3478  -0.3374  -0.2689

          Ground-State Mulliken Net Atomic Charges

     Atom                 Charge (a.u.)
  ----------------------------------------
      1 C                    -0.215213
      2 C                    -0.251525
      3 C                     0.065453
      4 H                     0.185416
      5 C                    -0.045769
      6 S                     0.008774
      7 C                    -0.314367
      8 H                     0.119804
      9 H                     0.109686
     10 H                     0.108397
     11 H                     0.206883
     12 C                     0.039627
     13 C                    -0.248695
     14 C                     0.028881
     15 H                     0.194864
     16 C                    -0.249582
     17 S                     0.008453
     18 C                    -0.270457
     19 H                     0.101270
     20 H                     0.108612
     21 H                     0.108988
     22 H                     0.200499
  ----------------------------------------
  Sum of atomic charges =     0.000000

                    Cartesian Multipole Moments
 -----------------------------------------------------------------
    Charge (ESU x 10^10)
                -0.0000
    Dipole Moment (Debye)
         X       0.4987      Y       0.2094      Z       2.9989
       Tot       3.0473
    Quadrupole Moments (Debye-Ang)
        XX     -92.0553     XY       2.7492     YY     -69.2043
        XZ       0.3079     YZ      -1.2410     ZZ     -80.0105

 Total job time:  50.34s(wall), 1743.61s(cpu)
        *  Thank you very much for using Q-Chem.  Have a nice day.  *
