 Q-Chem 5.4, Q-Chem, Inc., Pleasanton, CA (2021)
 Q-Chem 5.4.0 for Intel X86 EM64T Linux

User input:
--------------------------------------------------------------
$molecule
0 1
C	-0.555670	-3.887800	0.464838
C	0.505790	-3.701456	-0.425760
C	0.831053	-2.345170	-0.697866
H	1.046496	-4.545233	-0.879984
C	0.000000	-1.450135	0.000000
S	-1.170382	-2.321334	0.981588
C	1.939074	-1.934439	-1.627381
H	2.448051	-2.819799	-2.055015
H	2.708853	-1.326210	-1.107991
H	1.561590	-1.325374	-2.475210
H	-1.002886	-4.815326	0.839549
C	0.000000	0.000000	0.000000
C	0.285976	0.794723	1.113020
C	0.757308	2.103412	0.820578
H	0.154498	0.429575	2.142881
C	0.841565	2.336821	-0.563588
S	0.328498	0.913334	-1.464748
C	1.118059	3.105040	1.882380
H	0.966197	2.683616	2.894974
H	0.500773	4.024668	1.808137
H	2.180000	3.419766	1.808230
H	1.166129	3.238200	-1.097114
$end

$rem
JOBTYPE		SP
EXCHANGE	HF
CORRELATION	pRIMP2
BASIS		cc-pvtz
METHOD		rimp2
AUX_BASIS	rimp2-cc-pvtz
SOLVENT_METHOD	PCM
PURECART	11111
SYMMETRY	false
MEM_TOTAL	110000
SCF_CONVERGENCE = 6
THRESH=10
GUI = 2
$end

$solvent
dielectric 4.90
$end
--------------------------------------------------------------

             Standard Nuclear Orientation (Angstroms)
    I     Atom           X                Y                Z
 ----------------------------------------------------------------
    1      C      -0.5556700000    -3.8878000000     0.4648380000
    2      C       0.5057900000    -3.7014560000    -0.4257600000
    3      C       0.8310530000    -2.3451700000    -0.6978660000
    4      H       1.0464960000    -4.5452330000    -0.8799840000
    5      C       0.0000000000    -1.4501350000     0.0000000000
    6      S      -1.1703820000    -2.3213340000     0.9815880000
    7      C       1.9390740000    -1.9344390000    -1.6273810000
    8      H       2.4480510000    -2.8197990000    -2.0550150000
    9      H       2.7088530000    -1.3262100000    -1.1079910000
   10      H       1.5615900000    -1.3253740000    -2.4752100000
   11      H      -1.0028860000    -4.8153260000     0.8395490000
   12      C       0.0000000000     0.0000000000     0.0000000000
   13      C       0.2859760000     0.7947230000     1.1130200000
   14      C       0.7573080000     2.1034120000     0.8205780000
   15      H       0.1544980000     0.4295750000     2.1428810000
   16      C       0.8415650000     2.3368210000    -0.5635880000
   17      S       0.3284980000     0.9133340000    -1.4647480000
   18      C       1.1180590000     3.1050400000     1.8823800000
   19      H       0.9661970000     2.6836160000     2.8949740000
   20      H       0.5007730000     4.0246680000     1.8081370000
   21      H       2.1800000000     3.4197660000     1.8082300000
   22      H       1.1661290000     3.2382000000    -1.0971140000
 ----------------------------------------------------------------

   10   -1179.6767780535      5.09e-07  Convergence criterion met
 Total energy in the final basis set =    -1179.6767780535
        RIMP2         total energy =     -1181.6583859929 a.u.

                    Orbital Energies (a.u.)
 --------------------------------------------------------------

 Alpha MOs
 -- Occupied --
-91.9848 -91.9843 -11.2789 -11.2765 -11.2702 -11.2673 -11.2516 -11.2504
-11.2439 -11.2422 -11.2294 -11.2266  -8.9845  -8.9839  -6.6654  -6.6649
 -6.6648  -6.6643  -6.6643  -6.6637  -1.1796  -1.1493  -1.0407  -1.0216
 -0.9980  -0.9533  -0.9127  -0.8933  -0.7982  -0.7595  -0.7251  -0.6951
 -0.6607  -0.6166  -0.5822  -0.5781  -0.5750  -0.5697  -0.5511  -0.5319
 -0.5271  -0.5192  -0.5105  -0.4945  -0.4833  -0.4659  -0.4567  -0.3545
 -0.3417  -0.3351  -0.2813

          Ground-State Mulliken Net Atomic Charges

     Atom                 Charge (a.u.)
  ----------------------------------------
      1 C                    -0.216149
      2 C                    -0.252252
      3 C                     0.048296
      4 H                     0.185214
      5 C                    -0.030910
      6 S                     0.020110
      7 C                    -0.295086
      8 H                     0.108777
      9 H                     0.117022
     10 H                     0.113204
     11 H                     0.203953
     12 C                    -0.022235
     13 C                    -0.221941
     14 C                     0.015678
     15 H                     0.187056
     16 C                    -0.229439
     17 S                     0.020694
     18 C                    -0.269771
     19 H                     0.103061
     20 H                     0.108216
     21 H                     0.107687
     22 H                     0.198815
  ----------------------------------------
  Sum of atomic charges =     0.000000

                    Cartesian Multipole Moments
 -----------------------------------------------------------------
    Charge (ESU x 10^10)
                -0.0000
    Dipole Moment (Debye)
         X       1.8791      Y       0.4534      Z       0.4502
       Tot       1.9847
    Quadrupole Moments (Debye-Ang)
        XX     -87.7138     XY       1.8864     YY     -70.7799
        XZ      -2.9044     YZ       2.4699     ZZ     -83.7996

 Total job time:  51.03s(wall), 1705.36s(cpu)
        *  Thank you very much for using Q-Chem.  Have a nice day.  *
