 Q-Chem 5.4, Q-Chem, Inc., Pleasanton, CA (2021)
 Q-Chem 5.4.0 for Intel X86 EM64T Linux

User input:
--------------------------------------------------------------
$molecule
0 1
C	0.713644	-3.887800	-0.124726
C	-0.650907	-3.701456	0.115824
C	-1.068646	-2.345170	0.188844
H	-1.346284	-4.545233	0.238841
C	0.000000	-1.450135	0.000000
S	1.504375	-2.321334	-0.264890
C	-2.492978	-1.934439	0.439816
H	-3.147582	-2.819799	0.555669
H	-2.899931	-1.326210	-0.394879
H	-2.589982	-1.325374	1.362799
H	1.288299	-4.815326	-0.225628
C	0.000000	0.000000	0.000000
C	0.729909	0.424971	1.113020
C	1.932179	1.124518	0.820578
H	0.394478	0.229765	2.142881
C	2.146756	1.249161	-0.563588
S	0.838724	0.488500	-1.464748
C	2.852364	1.659924	1.882380
H	2.465145	1.434710	2.894974
H	2.970621	2.761183	1.808137
H	3.868160	1.218416	1.808230
H	2.974781	1.731032	-1.097114
$end

$rem
JOBTYPE		SP
EXCHANGE	HF
CORRELATION	pRIMP2
BASIS		cc-pvtz
METHOD		rimp2
AUX_BASIS	rimp2-cc-pvtz
SOLVENT_METHOD	PCM
PURECART	11111
SYMMETRY	false
MEM_TOTAL	110000
SCF_CONVERGENCE = 6
THRESH=10
GUI = 2
$end

$solvent
dielectric 4.90
$end
--------------------------------------------------------------

             Standard Nuclear Orientation (Angstroms)
    I     Atom           X                Y                Z
 ----------------------------------------------------------------
    1      C       0.7136440000    -3.8878000000    -0.1247260000
    2      C      -0.6509070000    -3.7014560000     0.1158240000
    3      C      -1.0686460000    -2.3451700000     0.1888440000
    4      H      -1.3462840000    -4.5452330000     0.2388410000
    5      C       0.0000000000    -1.4501350000     0.0000000000
    6      S       1.5043750000    -2.3213340000    -0.2648900000
    7      C      -2.4929780000    -1.9344390000     0.4398160000
    8      H      -3.1475820000    -2.8197990000     0.5556690000
    9      H      -2.8999310000    -1.3262100000    -0.3948790000
   10      H      -2.5899820000    -1.3253740000     1.3627990000
   11      H       1.2882990000    -4.8153260000    -0.2256280000
   12      C       0.0000000000     0.0000000000     0.0000000000
   13      C       0.7299090000     0.4249710000     1.1130200000
   14      C       1.9321790000     1.1245180000     0.8205780000
   15      H       0.3944780000     0.2297650000     2.1428810000
   16      C       2.1467560000     1.2491610000    -0.5635880000
   17      S       0.8387240000     0.4885000000    -1.4647480000
   18      C       2.8523640000     1.6599240000     1.8823800000
   19      H       2.4651450000     1.4347100000     2.8949740000
   20      H       2.9706210000     2.7611830000     1.8081370000
   21      H       3.8681600000     1.2184160000     1.8082300000
   22      H       2.9747810000     1.7310320000    -1.0971140000
 ----------------------------------------------------------------

   10   -1179.6150712233      8.41e-07  Convergence criterion met
 Total energy in the final basis set =    -1179.6150712233
        RIMP2         total energy =     -1181.6081481918 a.u.

                    Orbital Energies (a.u.)
 --------------------------------------------------------------

 Alpha MOs
 -- Occupied --
-91.9823 -91.9731 -11.2913 -11.2707 -11.2656 -11.2631 -11.2536 -11.2499
-11.2380 -11.2349 -11.2313 -11.2244  -8.9829  -8.9737  -6.6637  -6.6628
 -6.6626  -6.6546  -6.6540  -6.6534  -1.1906  -1.1444  -1.0453  -1.0163
 -0.9998  -0.9510  -0.9110  -0.8899  -0.7967  -0.7472  -0.7420  -0.6893
 -0.6551  -0.6227  -0.5875  -0.5793  -0.5683  -0.5674  -0.5474  -0.5343
 -0.5316  -0.5150  -0.5069  -0.4894  -0.4700  -0.4607  -0.4515  -0.3646
 -0.3291  -0.3165  -0.2883

          Ground-State Mulliken Net Atomic Charges

     Atom                 Charge (a.u.)
  ----------------------------------------
      1 C                    -0.231497
      2 C                    -0.249028
      3 C                     0.038674
      4 H                     0.180747
      5 C                    -0.054837
      6 S                     0.010266
      7 C                    -0.283776
      8 H                     0.105102
      9 H                     0.108087
     10 H                     0.105299
     11 H                     0.201288
     12 C                    -0.129311
     13 C                    -0.096050
     14 C                    -0.019994
     15 H                     0.187519
     16 C                    -0.166529
     17 S                     0.040616
     18 C                    -0.267259
     19 H                     0.103555
     20 H                     0.108285
     21 H                     0.106440
     22 H                     0.202401
  ----------------------------------------
  Sum of atomic charges =     0.000000

                    Cartesian Multipole Moments
 -----------------------------------------------------------------
    Charge (ESU x 10^10)
                -0.0000
    Dipole Moment (Debye)
         X       1.4863      Y       0.8966      Z       1.9221
       Tot       2.5899
    Quadrupole Moments (Debye-Ang)
        XX     -77.3129     XY       8.0385     YY     -80.2025
        XZ      -0.4059     YZ       0.1806     ZZ     -85.4309

 Total job time:  48.10s(wall), 1744.78s(cpu)
        *  Thank you very much for using Q-Chem.  Have a nice day.  *
