 Q-Chem 5.4, Q-Chem, Inc., Pleasanton, CA (2021)
 Q-Chem 5.4.0 for Intel X86 EM64T Linux

User input:
--------------------------------------------------------------
$molecule
0 1
C	0.713264	-3.887800	0.126876
C	-0.651267	-3.701456	-0.113784
C	-1.068787	-2.345170	-0.188043
H	-1.346782	-4.545233	-0.236019
C	-0.000000	-1.450135	-0.000000
S	1.504247	-2.321334	0.265612
C	-2.493059	-1.934439	-0.439357
H	-3.147809	-2.819799	-0.554378
H	-2.589987	-1.326210	-1.362899
H	-2.899892	-1.325374	0.394786
H	1.287774	-4.815326	0.228603
C	0.000000	0.000000	0.000000
C	0.540541	0.648986	1.113020
C	1.431046	1.717546	0.820578
H	0.292104	0.350827	2.142881
C	1.590053	1.908061	-0.563588
S	0.621066	0.745901	-1.464748
C	2.112618	2.535384	1.882380
H	1.825779	2.191315	2.894974
H	1.847090	3.610676	1.808137
H	3.218159	2.467925	1.808230
H	2.203332	2.644073	-1.097114
$end

$rem
JOBTYPE		SP
EXCHANGE	HF
CORRELATION	pRIMP2
BASIS		cc-pvtz
METHOD		rimp2
AUX_BASIS	rimp2-cc-pvtz
SOLVENT_METHOD	PCM
PURECART	11111
SYMMETRY	false
MEM_TOTAL	110000
SCF_CONVERGENCE = 6
THRESH=10
GUI = 2
$end

$solvent
dielectric 4.90
$end
--------------------------------------------------------------

             Standard Nuclear Orientation (Angstroms)
    I     Atom           X                Y                Z
 ----------------------------------------------------------------
    1      C       0.7132640000    -3.8878000000     0.1268760000
    2      C      -0.6512670000    -3.7014560000    -0.1137840000
    3      C      -1.0687870000    -2.3451700000    -0.1880430000
    4      H      -1.3467820000    -4.5452330000    -0.2360190000
    5      C       0.0000000000    -1.4501350000     0.0000000000
    6      S       1.5042470000    -2.3213340000     0.2656120000
    7      C      -2.4930590000    -1.9344390000    -0.4393570000
    8      H      -3.1478090000    -2.8197990000    -0.5543780000
    9      H      -2.5899870000    -1.3262100000    -1.3628990000
   10      H      -2.8998920000    -1.3253740000     0.3947860000
   11      H       1.2877740000    -4.8153260000     0.2286030000
   12      C       0.0000000000     0.0000000000     0.0000000000
   13      C       0.5405410000     0.6489860000     1.1130200000
   14      C       1.4310460000     1.7175460000     0.8205780000
   15      H       0.2921040000     0.3508270000     2.1428810000
   16      C       1.5900530000     1.9080610000    -0.5635880000
   17      S       0.6210660000     0.7459010000    -1.4647480000
   18      C       2.1126180000     2.5353840000     1.8823800000
   19      H       1.8257790000     2.1913150000     2.8949740000
   20      H       1.8470900000     3.6106760000     1.8081370000
   21      H       3.2181590000     2.4679250000     1.8082300000
   22      H       2.2033320000     2.6440730000    -1.0971140000
 ----------------------------------------------------------------

   10   -1179.6571160127      5.58e-07  Convergence criterion met
 Total energy in the final basis set =    -1179.6571160127
        RIMP2         total energy =     -1181.6414937341 a.u.

                    Orbital Energies (a.u.)
 --------------------------------------------------------------

 Alpha MOs
 -- Occupied --
-91.9834 -91.9812 -11.2759 -11.2706 -11.2692 -11.2659 -11.2522 -11.2505
-11.2465 -11.2390 -11.2298 -11.2273  -8.9833  -8.9810  -6.6642  -6.6635
 -6.6630  -6.6618  -6.6613  -6.6607  -1.1813  -1.1479  -1.0410  -1.0201
 -0.9977  -0.9515  -0.9126  -0.8914  -0.7972  -0.7531  -0.7325  -0.6909
 -0.6592  -0.6183  -0.5830  -0.5798  -0.5700  -0.5690  -0.5497  -0.5327
 -0.5285  -0.5171  -0.5084  -0.4913  -0.4739  -0.4641  -0.4625  -0.3522
 -0.3330  -0.3184  -0.3005

          Ground-State Mulliken Net Atomic Charges

     Atom                 Charge (a.u.)
  ----------------------------------------
      1 C                    -0.210375
      2 C                    -0.254389
      3 C                     0.057316
      4 H                     0.182597
      5 C                    -0.059941
      6 S                     0.021669
      7 C                    -0.285998
      8 H                     0.106854
      9 H                     0.109488
     10 H                     0.109569
     11 H                     0.203210
     12 C                    -0.029924
     13 C                    -0.242008
     14 C                     0.039840
     15 H                     0.185393
     16 C                    -0.216167
     17 S                     0.031477
     18 C                    -0.267006
     19 H                     0.103093
     20 H                     0.107754
     21 H                     0.107571
     22 H                     0.199977
  ----------------------------------------
  Sum of atomic charges =     0.000000

                    Cartesian Multipole Moments
 -----------------------------------------------------------------
    Charge (ESU x 10^10)
                -0.0000
    Dipole Moment (Debye)
         X       0.1371      Y       0.5559      Z       1.3115
       Tot       1.4311
    Quadrupole Moments (Debye-Ang)
        XX     -81.7428     XY       8.0273     YY     -74.1017
        XZ       1.7246     YZ       1.2253     ZZ     -86.1840

 Total job time:  54.25s(wall), 1877.38s(cpu)
        *  Thank you very much for using Q-Chem.  Have a nice day.  *
