 Q-Chem 5.4, Q-Chem, Inc., Pleasanton, CA (2021)
 Q-Chem 5.4.0 for Intel X86 EM64T Linux

User input:
--------------------------------------------------------------
$molecule
0 1
C	0.554267	-3.887800	0.466510
C	-0.507121	-3.701456	-0.424173
C	-0.831575	-2.345170	-0.697244
H	-1.048337	-4.545233	-0.877789
C	0.000000	-1.450135	0.000000
S	1.169911	-2.321334	0.982150
C	-1.939374	-1.934439	-1.627024
H	-2.448894	-2.819799	-2.054010
H	-1.561545	-1.326210	-2.475299
H	-2.708773	-1.325374	-1.108051
H	1.000944	-4.815326	0.841863
C	0.000000	0.000000	0.000000
C	0.729909	0.424971	1.113020
C	1.932179	1.124518	0.820578
H	0.394478	0.229765	2.142881
C	2.146756	1.249161	-0.563588
S	0.838724	0.488500	-1.464748
C	2.852364	1.659924	1.882380
H	2.465145	1.434710	2.894974
H	2.970621	2.761183	1.808137
H	3.868160	1.218416	1.808230
H	2.974781	1.731032	-1.097114
$end

$rem
JOBTYPE		SP
EXCHANGE	HF
CORRELATION	pRIMP2
BASIS		cc-pvtz
METHOD		rimp2
AUX_BASIS	rimp2-cc-pvtz
SOLVENT_METHOD	PCM
PURECART	11111
SYMMETRY	false
MEM_TOTAL	110000
SCF_CONVERGENCE = 6
THRESH=10
GUI = 2
$end

$solvent
dielectric 4.90
$end
--------------------------------------------------------------

             Standard Nuclear Orientation (Angstroms)
    I     Atom           X                Y                Z
 ----------------------------------------------------------------
    1      C       0.5542670000    -3.8878000000     0.4665100000
    2      C      -0.5071210000    -3.7014560000    -0.4241730000
    3      C      -0.8315750000    -2.3451700000    -0.6972440000
    4      H      -1.0483370000    -4.5452330000    -0.8777890000
    5      C       0.0000000000    -1.4501350000     0.0000000000
    6      S       1.1699110000    -2.3213340000     0.9821500000
    7      C      -1.9393740000    -1.9344390000    -1.6270240000
    8      H      -2.4488940000    -2.8197990000    -2.0540100000
    9      H      -1.5615450000    -1.3262100000    -2.4752990000
   10      H      -2.7087730000    -1.3253740000    -1.1080510000
   11      H       1.0009440000    -4.8153260000     0.8418630000
   12      C       0.0000000000     0.0000000000     0.0000000000
   13      C       0.7299090000     0.4249710000     1.1130200000
   14      C       1.9321790000     1.1245180000     0.8205780000
   15      H       0.3944780000     0.2297650000     2.1428810000
   16      C       2.1467560000     1.2491610000    -0.5635880000
   17      S       0.8387240000     0.4885000000    -1.4647480000
   18      C       2.8523640000     1.6599240000     1.8823800000
   19      H       2.4651450000     1.4347100000     2.8949740000
   20      H       2.9706210000     2.7611830000     1.8081370000
   21      H       3.8681600000     1.2184160000     1.8082300000
   22      H       2.9747810000     1.7310320000    -1.0971140000
 ----------------------------------------------------------------

   10   -1179.6191042423      7.82e-07  Convergence criterion met
 Total energy in the final basis set =    -1179.6191042423
        RIMP2         total energy =     -1181.6139109992 a.u.

                    Orbital Energies (a.u.)
 --------------------------------------------------------------

 Alpha MOs
 -- Occupied --
-91.9855 -91.9787 -11.2923 -11.2734 -11.2633 -11.2598 -11.2559 -11.2535
-11.2372 -11.2347 -11.2318 -11.2249  -8.9858  -8.9787  -6.6666  -6.6657
 -6.6654  -6.6596  -6.6589  -6.6583  -1.1921  -1.1451  -1.0461  -1.0184
 -1.0029  -0.9473  -0.9152  -0.8899  -0.7964  -0.7608  -0.7317  -0.6875
 -0.6560  -0.6227  -0.5887  -0.5801  -0.5713  -0.5687  -0.5484  -0.5353
 -0.5298  -0.5141  -0.5064  -0.4934  -0.4689  -0.4621  -0.4568  -0.3519
 -0.3415  -0.3348  -0.2755

          Ground-State Mulliken Net Atomic Charges

     Atom                 Charge (a.u.)
  ----------------------------------------
      1 C                    -0.252340
      2 C                    -0.234659
      3 C                     0.008684
      4 H                     0.182154
      5 C                     0.003678
      6 S                     0.009137
      7 C                    -0.292579
      8 H                     0.107780
      9 H                     0.105120
     10 H                     0.107887
     11 H                     0.200069
     12 C                    -0.133550
     13 C                    -0.156392
     14 C                    -0.005535
     15 H                     0.201353
     16 C                    -0.165684
     17 S                     0.053457
     18 C                    -0.266471
     19 H                     0.104941
     20 H                     0.110951
     21 H                     0.107912
     22 H                     0.204087
  ----------------------------------------
  Sum of atomic charges =     0.000000

                    Cartesian Multipole Moments
 -----------------------------------------------------------------
    Charge (ESU x 10^10)
                -0.0000
    Dipole Moment (Debye)
         X       1.8254      Y       1.0192      Z       0.7170
       Tot       2.2101
    Quadrupole Moments (Debye-Ang)
        XX     -79.3151     XY       7.7276     YY     -80.2158
        XZ       3.5196     YZ       2.1206     ZZ     -83.3096

 Total job time:  48.39s(wall), 1740.07s(cpu)
        *  Thank you very much for using Q-Chem.  Have a nice day.  *
