 Q-Chem 5.4, Q-Chem, Inc., Pleasanton, CA (2021)
 Q-Chem 5.4.0 for Intel X86 EM64T Linux

User input:
--------------------------------------------------------------
$molecule
0 1
C	0.724460	-3.887800	0.001092
C	-0.661131	-3.701456	0.001036
C	-1.085203	-2.345170	0.000406
H	-1.367305	-4.545233	0.001433
C	0.000000	-1.450135	0.000000
S	1.527517	-2.321334	0.000367
C	-2.531478	-1.934439	0.000233
H	-3.196254	-2.819799	0.000656
H	-2.787305	-1.326210	-0.892447
H	-2.787282	-1.325374	0.892350
H	1.307907	-4.815326	0.001511
C	0.000000	0.000000	0.000000
C	0.419634	0.732990	1.113020
C	1.111057	1.939951	0.820578
H	0.226746	0.396221	2.142881
C	1.234565	2.155183	-0.563588
S	0.482106	0.842416	-1.464748
C	1.640257	2.863718	1.882380
H	1.417524	2.475067	2.894974
H	1.192042	3.876565	1.808137
H	2.740717	2.989259	1.808230
H	1.710720	2.986508	-1.097114
$end

$rem
JOBTYPE		SP
EXCHANGE	HF
CORRELATION	pRIMP2
BASIS		cc-pvtz
METHOD		rimp2
AUX_BASIS	rimp2-cc-pvtz
SOLVENT_METHOD	PCM
PURECART	11111
SYMMETRY	false
MEM_TOTAL	110000
SCF_CONVERGENCE = 6
THRESH=10
GUI = 2
$end

$solvent
dielectric 4.90
$end
--------------------------------------------------------------

             Standard Nuclear Orientation (Angstroms)
    I     Atom           X                Y                Z
 ----------------------------------------------------------------
    1      C       0.7244600000    -3.8878000000     0.0010920000
    2      C      -0.6611310000    -3.7014560000     0.0010360000
    3      C      -1.0852030000    -2.3451700000     0.0004060000
    4      H      -1.3673050000    -4.5452330000     0.0014330000
    5      C       0.0000000000    -1.4501350000     0.0000000000
    6      S       1.5275170000    -2.3213340000     0.0003670000
    7      C      -2.5314780000    -1.9344390000     0.0002330000
    8      H      -3.1962540000    -2.8197990000     0.0006560000
    9      H      -2.7873050000    -1.3262100000    -0.8924470000
   10      H      -2.7872820000    -1.3253740000     0.8923500000
   11      H       1.3079070000    -4.8153260000     0.0015110000
   12      C       0.0000000000     0.0000000000     0.0000000000
   13      C       0.4196340000     0.7329900000     1.1130200000
   14      C       1.1110570000     1.9399510000     0.8205780000
   15      H       0.2267460000     0.3962210000     2.1428810000
   16      C       1.2345650000     2.1551830000    -0.5635880000
   17      S       0.4821060000     0.8424160000    -1.4647480000
   18      C       1.6402570000     2.8637180000     1.8823800000
   19      H       1.4175240000     2.4750670000     2.8949740000
   20      H       1.1920420000     3.8765650000     1.8081370000
   21      H       2.7407170000     2.9892590000     1.8082300000
   22      H       1.7107200000     2.9865080000    -1.0971140000
 ----------------------------------------------------------------

   10   -1179.6695649886      5.18e-07  Convergence criterion met
 Total energy in the final basis set =    -1179.6695649886
        RIMP2         total energy =     -1181.6507538767 a.u.

                    Orbital Energies (a.u.)
 --------------------------------------------------------------

 Alpha MOs
 -- Occupied --
-91.9843 -91.9829 -11.2720 -11.2712 -11.2709 -11.2708 -11.2513 -11.2493
-11.2466 -11.2401 -11.2294 -11.2282  -8.9840  -8.9826  -6.6648  -6.6642
 -6.6637  -6.6634  -6.6629  -6.6623  -1.1793  -1.1486  -1.0399  -1.0213
 -0.9968  -0.9528  -0.9124  -0.8919  -0.7985  -0.7521  -0.7319  -0.6926
 -0.6604  -0.6173  -0.5828  -0.5793  -0.5700  -0.5690  -0.5505  -0.5317
 -0.5291  -0.5181  -0.5081  -0.4915  -0.4799  -0.4641  -0.4631  -0.3509
 -0.3342  -0.3128  -0.3081

          Ground-State Mulliken Net Atomic Charges

     Atom                 Charge (a.u.)
  ----------------------------------------
      1 C                    -0.206196
      2 C                    -0.254586
      3 C                     0.062124
      4 H                     0.183191
      5 C                    -0.067316
      6 S                     0.026152
      7 C                    -0.285149
      8 H                     0.106697
      9 H                     0.110473
     10 H                     0.109112
     11 H                     0.203654
     12 C                    -0.018652
     13 C                    -0.231540
     14 C                     0.031338
     15 H                     0.183285
     16 C                    -0.228055
     17 S                     0.026867
     18 C                    -0.268783
     19 H                     0.102942
     20 H                     0.107717
     21 H                     0.107792
     22 H                     0.198932
  ----------------------------------------
  Sum of atomic charges =     0.000000

                    Cartesian Multipole Moments
 -----------------------------------------------------------------
    Charge (ESU x 10^10)
                -0.0000
    Dipole Moment (Debye)
         X      -0.3782      Y       0.4487      Z       1.5351
       Tot       1.6435
    Quadrupole Moments (Debye-Ang)
        XX     -83.4392     XY       7.1344     YY     -71.9408
        XZ       0.5501     YZ       0.9323     ZZ     -86.5371

 Total job time:  51.84s(wall), 1677.82s(cpu)
        *  Thank you very much for using Q-Chem.  Have a nice day.  *
