 Q-Chem 5.4, Q-Chem, Inc., Pleasanton, CA (2021)
 Q-Chem 5.4.0 for Intel X86 EM64T Linux

User input:
--------------------------------------------------------------
$molecule
0 1
C	0.466510	-3.887800	-0.554267
C	-0.424173	-3.701456	0.507121
C	-0.697244	-2.345170	0.831575
H	-0.877789	-4.545233	1.048337
C	0.000000	-1.450135	0.000000
S	0.982150	-2.321334	-1.169911
C	-1.627024	-1.934439	1.939374
H	-2.054010	-2.819799	2.448894
H	-2.475299	-1.326210	1.561545
H	-1.108051	-1.325374	2.708773
H	0.841863	-4.815326	-1.000944
C	0.000000	0.000000	0.000000
C	0.354153	0.766774	1.113020
C	0.937751	2.029404	0.820578
H	0.191350	0.414475	2.142881
C	1.042030	2.254581	-0.563588
S	0.406851	0.881228	-1.464748
C	1.384426	2.995779	1.882380
H	1.196413	2.589194	2.894974
H	0.849641	3.965707	1.808137
H	2.469756	3.216753	1.808230
H	1.443919	3.124243	-1.097114
$end

$rem
JOBTYPE		SP
EXCHANGE	HF
CORRELATION	pRIMP2
BASIS		cc-pvtz
METHOD		rimp2
AUX_BASIS	rimp2-cc-pvtz
SOLVENT_METHOD	PCM
PURECART	11111
SYMMETRY	false
MEM_TOTAL	110000
SCF_CONVERGENCE = 6
THRESH=10
GUI = 2
$end

$solvent
dielectric 4.90
$end
--------------------------------------------------------------

             Standard Nuclear Orientation (Angstroms)
    I     Atom           X                Y                Z
 ----------------------------------------------------------------
    1      C       0.4665100000    -3.8878000000    -0.5542670000
    2      C      -0.4241730000    -3.7014560000     0.5071210000
    3      C      -0.6972440000    -2.3451700000     0.8315750000
    4      H      -0.8777890000    -4.5452330000     1.0483370000
    5      C       0.0000000000    -1.4501350000     0.0000000000
    6      S       0.9821500000    -2.3213340000    -1.1699110000
    7      C      -1.6270240000    -1.9344390000     1.9393740000
    8      H      -2.0540100000    -2.8197990000     2.4488940000
    9      H      -2.4752990000    -1.3262100000     1.5615450000
   10      H      -1.1080510000    -1.3253740000     2.7087730000
   11      H       0.8418630000    -4.8153260000    -1.0009440000
   12      C       0.0000000000     0.0000000000     0.0000000000
   13      C       0.3541530000     0.7667740000     1.1130200000
   14      C       0.9377510000     2.0294040000     0.8205780000
   15      H       0.1913500000     0.4144750000     2.1428810000
   16      C       1.0420300000     2.2545810000    -0.5635880000
   17      S       0.4068510000     0.8812280000    -1.4647480000
   18      C       1.3844260000     2.9957790000     1.8823800000
   19      H       1.1964130000     2.5891940000     2.8949740000
   20      H       0.8496410000     3.9657070000     1.8081370000
   21      H       2.4697560000     3.2167530000     1.8082300000
   22      H       1.4439190000     3.1242430000    -1.0971140000
 ----------------------------------------------------------------

   10   -1179.6748511623      4.99e-07  Convergence criterion met
 Total energy in the final basis set =    -1179.6748511623
        RIMP2         total energy =     -1181.6565445894 a.u.

                    Orbital Energies (a.u.)
 --------------------------------------------------------------

 Alpha MOs
 -- Occupied --
-91.9867 -91.9848 -11.2792 -11.2774 -11.2691 -11.2681 -11.2532 -11.2478
-11.2455 -11.2419 -11.2300 -11.2291  -8.9864  -8.9844  -6.6673  -6.6667
 -6.6661  -6.6653  -6.6648  -6.6641  -1.1811  -1.1495  -1.0416  -1.0237
 -0.9961  -0.9559  -0.9120  -0.8939  -0.8013  -0.7528  -0.7308  -0.6974
 -0.6603  -0.6159  -0.5878  -0.5806  -0.5700  -0.5643  -0.5514  -0.5367
 -0.5304  -0.5201  -0.5069  -0.4911  -0.4837  -0.4737  -0.4556  -0.3610
 -0.3418  -0.3378  -0.2756

          Ground-State Mulliken Net Atomic Charges

     Atom                 Charge (a.u.)
  ----------------------------------------
      1 C                    -0.223395
      2 C                    -0.248012
      3 C                     0.033715
      4 H                     0.184186
      5 C                    -0.026891
      6 S                     0.020686
      7 C                    -0.295045
      8 H                     0.110251
      9 H                     0.112270
     10 H                     0.105054
     11 H                     0.203967
     12 C                    -0.012989
     13 C                    -0.199629
     14 C                     0.009149
     15 H                     0.193153
     16 C                    -0.222365
     17 S                     0.007822
     18 C                    -0.271049
     19 H                     0.102142
     20 H                     0.108521
     21 H                     0.108424
     22 H                     0.200034
  ----------------------------------------
  Sum of atomic charges =     0.000000

                    Cartesian Multipole Moments
 -----------------------------------------------------------------
    Charge (ESU x 10^10)
                -0.0000
    Dipole Moment (Debye)
         X      -0.0234      Y       0.5943      Z       2.6212
       Tot       2.6878
    Quadrupole Moments (Debye-Ang)
        XX     -88.0763     XY       5.7536     YY     -71.4005
        XZ      -2.6788     YZ      -0.7473     ZZ     -82.7674

 Total job time:  56.63s(wall), 1818.23s(cpu)
        *  Thank you very much for using Q-Chem.  Have a nice day.  *
