 Q-Chem 5.4, Q-Chem, Inc., Pleasanton, CA (2021)
 Q-Chem 5.4.0 for Intel X86 EM64T Linux

User input:
--------------------------------------------------------------
$molecule
0 1
C	0.337756	-3.873100	0.724460
C	0.321571	-3.687462	-0.661131
C	0.203990	-2.336281	-1.085203
H	0.394716	-4.528062	-1.367305
C	0.126388	-1.444617	0.000000
S	0.201952	-2.312532	1.527517
C	0.168365	-1.927099	-2.531478
H	0.245108	-2.809126	-3.196254
H	1.004638	-1.243381	-2.787305
H	-0.773440	-1.398104	-2.787282
H	0.418178	-4.797134	1.307907
C	0.000000	0.000000	0.000000
C	0.285976	0.794723	1.113020
C	0.757308	2.103412	0.820578
H	0.154498	0.429575	2.142881
C	0.841565	2.336821	-0.563588
S	0.328498	0.913334	-1.464748
C	1.118059	3.105040	1.882380
H	0.966197	2.683616	2.894974
H	0.500773	4.024668	1.808137
H	2.180000	3.419766	1.808230
H	1.166129	3.238200	-1.097114
$end

$rem
JOBTYPE		SP
EXCHANGE	HF
CORRELATION	pRIMP2
BASIS		cc-pvtz
METHOD		rimp2
AUX_BASIS	rimp2-cc-pvtz
SOLVENT_METHOD	PCM
PURECART	11111
SYMMETRY	false
MEM_TOTAL	110000
SCF_CONVERGENCE = 6
THRESH=10
GUI = 2
$end

$solvent
dielectric 4.90
$end
--------------------------------------------------------------

             Standard Nuclear Orientation (Angstroms)
    I     Atom           X                Y                Z
 ----------------------------------------------------------------
    1      C       0.3377560000    -3.8731000000     0.7244600000
    2      C       0.3215710000    -3.6874620000    -0.6611310000
    3      C       0.2039900000    -2.3362810000    -1.0852030000
    4      H       0.3947160000    -4.5280620000    -1.3673050000
    5      C       0.1263880000    -1.4446170000     0.0000000000
    6      S       0.2019520000    -2.3125320000     1.5275170000
    7      C       0.1683650000    -1.9270990000    -2.5314780000
    8      H       0.2451080000    -2.8091260000    -3.1962540000
    9      H       1.0046380000    -1.2433810000    -2.7873050000
   10      H      -0.7734400000    -1.3981040000    -2.7872820000
   11      H       0.4181780000    -4.7971340000     1.3079070000
   12      C       0.0000000000     0.0000000000     0.0000000000
   13      C       0.2859760000     0.7947230000     1.1130200000
   14      C       0.7573080000     2.1034120000     0.8205780000
   15      H       0.1544980000     0.4295750000     2.1428810000
   16      C       0.8415650000     2.3368210000    -0.5635880000
   17      S       0.3284980000     0.9133340000    -1.4647480000
   18      C       1.1180590000     3.1050400000     1.8823800000
   19      H       0.9661970000     2.6836160000     2.8949740000
   20      H       0.5007730000     4.0246680000     1.8081370000
   21      H       2.1800000000     3.4197660000     1.8082300000
   22      H       1.1661290000     3.2382000000    -1.0971140000
 ----------------------------------------------------------------

   10   -1179.6729489550      5.18e-07  Convergence criterion met
 Total energy in the final basis set =    -1179.6729489550
        RIMP2         total energy =     -1181.6569423752 a.u.

                    Orbital Energies (a.u.)
 --------------------------------------------------------------

 Alpha MOs
 -- Occupied --
-91.9849 -91.9837 -11.2810 -11.2790 -11.2706 -11.2660 -11.2528 -11.2503
-11.2428 -11.2427 -11.2293 -11.2286  -8.9848  -8.9836  -6.6656  -6.6651
 -6.6646  -6.6644  -6.6641  -6.6634  -1.1820  -1.1495  -1.0422  -1.0247
 -0.9986  -0.9520  -0.9140  -0.8957  -0.7982  -0.7653  -0.7200  -0.6954
 -0.6617  -0.6164  -0.5837  -0.5827  -0.5780  -0.5697  -0.5522  -0.5334
 -0.5228  -0.5210  -0.5117  -0.4972  -0.4863  -0.4667  -0.4494  -0.3704
 -0.3428  -0.3401  -0.2673

          Ground-State Mulliken Net Atomic Charges

     Atom                 Charge (a.u.)
  ----------------------------------------
      1 C                    -0.215224
      2 C                    -0.252121
      3 C                     0.052909
      4 H                     0.185333
      5 C                    -0.032033
      6 S                     0.002693
      7 C                    -0.320839
      8 H                     0.116385
      9 H                     0.115486
     10 H                     0.115995
     11 H                     0.205980
     12 C                     0.045603
     13 C                    -0.265675
     14 C                     0.040994
     15 H                     0.176765
     16 C                    -0.254321
     17 S                     0.030910
     18 C                    -0.268305
     19 H                     0.102954
     20 H                     0.108549
     21 H                     0.108509
     22 H                     0.199455
  ----------------------------------------
  Sum of atomic charges =     0.000000

                    Cartesian Multipole Moments
 -----------------------------------------------------------------
    Charge (ESU x 10^10)
                -0.0000
    Dipole Moment (Debye)
         X       0.8444      Y       0.3768      Z      -0.1503
       Tot       0.9367
    Quadrupole Moments (Debye-Ang)
        XX     -91.3492     XY       2.4290     YY     -70.6227
        XZ       0.0907     YZ       3.4728     ZZ     -79.7830

 Total job time:  51.48s(wall), 1757.49s(cpu)
        *  Thank you very much for using Q-Chem.  Have a nice day.  *
