 Q-Chem 5.4, Q-Chem, Inc., Pleasanton, CA (2021)
 Q-Chem 5.4.0 for Intel X86 EM64T Linux

User input:
--------------------------------------------------------------
$molecule
0 1
C	0.466510	-3.887800	-0.554267
C	-0.424173	-3.701456	0.507121
C	-0.697244	-2.345170	0.831575
H	-0.877789	-4.545233	1.048337
C	-0.000000	-1.450135	-0.000000
S	0.982150	-2.321334	-1.169911
C	-1.627024	-1.934439	1.939374
H	-2.054010	-2.819799	2.448894
H	-2.475299	-1.326210	1.561545
H	-1.108051	-1.325374	2.708773
H	0.841863	-4.815326	-1.000944
C	0.000000	0.000000	0.000000
C	0.540541	0.648986	1.113020
C	1.431046	1.717546	0.820578
H	0.292104	0.350827	2.142881
C	1.590053	1.908061	-0.563588
S	0.621066	0.745901	-1.464748
C	2.112618	2.535384	1.882380
H	1.825779	2.191315	2.894974
H	1.847090	3.610676	1.808137
H	3.218159	2.467925	1.808230
H	2.203332	2.644073	-1.097114
$end

$rem
JOBTYPE		SP
EXCHANGE	HF
CORRELATION	pRIMP2
BASIS		cc-pvtz
METHOD		rimp2
AUX_BASIS	rimp2-cc-pvtz
SOLVENT_METHOD	PCM
PURECART	11111
SYMMETRY	false
MEM_TOTAL	110000
SCF_CONVERGENCE = 6
THRESH=10
GUI = 2
$end

$solvent
dielectric 4.90
$end
--------------------------------------------------------------

             Standard Nuclear Orientation (Angstroms)
    I     Atom           X                Y                Z
 ----------------------------------------------------------------
    1      C       0.4665100000    -3.8878000000    -0.5542670000
    2      C      -0.4241730000    -3.7014560000     0.5071210000
    3      C      -0.6972440000    -2.3451700000     0.8315750000
    4      H      -0.8777890000    -4.5452330000     1.0483370000
    5      C       0.0000000000    -1.4501350000     0.0000000000
    6      S       0.9821500000    -2.3213340000    -1.1699110000
    7      C      -1.6270240000    -1.9344390000     1.9393740000
    8      H      -2.0540100000    -2.8197990000     2.4488940000
    9      H      -2.4752990000    -1.3262100000     1.5615450000
   10      H      -1.1080510000    -1.3253740000     2.7087730000
   11      H       0.8418630000    -4.8153260000    -1.0009440000
   12      C       0.0000000000     0.0000000000     0.0000000000
   13      C       0.5405410000     0.6489860000     1.1130200000
   14      C       1.4310460000     1.7175460000     0.8205780000
   15      H       0.2921040000     0.3508270000     2.1428810000
   16      C       1.5900530000     1.9080610000    -0.5635880000
   17      S       0.6210660000     0.7459010000    -1.4647480000
   18      C       2.1126180000     2.5353840000     1.8823800000
   19      H       1.8257790000     2.1913150000     2.8949740000
   20      H       1.8470900000     3.6106760000     1.8081370000
   21      H       3.2181590000     2.4679250000     1.8082300000
   22      H       2.2033320000     2.6440730000    -1.0971140000
 ----------------------------------------------------------------

   10   -1179.6554527306      6.69e-07  Convergence criterion met
 Total energy in the final basis set =    -1179.6554527306
        RIMP2         total energy =     -1181.6419400117 a.u.

                    Orbital Energies (a.u.)
 --------------------------------------------------------------

 Alpha MOs
 -- Occupied --
-91.9864 -91.9821 -11.2776 -11.2772 -11.2725 -11.2620 -11.2548 -11.2533
-11.2409 -11.2394 -11.2309 -11.2275  -8.9864  -8.9817  -6.6673  -6.6666
 -6.6661  -6.6626  -6.6620  -6.6613  -1.1844  -1.1479  -1.0436  -1.0215
 -0.9967  -0.9556  -0.9106  -0.8934  -0.8005  -0.7516  -0.7327  -0.6967
 -0.6576  -0.6170  -0.5893  -0.5804  -0.5698  -0.5639  -0.5505  -0.5375
 -0.5315  -0.5184  -0.5074  -0.4898  -0.4800  -0.4707  -0.4535  -0.3634
 -0.3399  -0.3364  -0.2724

          Ground-State Mulliken Net Atomic Charges

     Atom                 Charge (a.u.)
  ----------------------------------------
      1 C                    -0.240718
      2 C                    -0.243733
      3 C                     0.015648
      4 H                     0.182650
      5 C                    -0.007431
      6 S                     0.020501
      7 C                    -0.295971
      8 H                     0.109314
      9 H                     0.110019
     10 H                     0.102332
     11 H                     0.201946
     12 C                    -0.047695
     13 C                    -0.162406
     14 C                     0.000296
     15 H                     0.195367
     16 C                    -0.202012
     17 S                     0.010417
     18 C                    -0.268869
     19 H                     0.102242
     20 H                     0.108513
     21 H                     0.107912
     22 H                     0.201677
  ----------------------------------------
  Sum of atomic charges =     0.000000

                    Cartesian Multipole Moments
 -----------------------------------------------------------------
    Charge (ESU x 10^10)
                -0.0000
    Dipole Moment (Debye)
         X       0.7838      Y       1.0777      Z       2.6384
       Tot       2.9558
    Quadrupole Moments (Debye-Ang)
        XX     -85.2194     XY       7.3887     YY     -75.5030
        XZ      -2.3576     YZ      -0.9805     ZZ     -82.6258

 Total job time:  53.22s(wall), 1862.94s(cpu)
        *  Thank you very much for using Q-Chem.  Have a nice day.  *
