 Q-Chem 5.4, Q-Chem, Inc., Pleasanton, CA (2021)
 Q-Chem 5.4.0 for Intel X86 EM64T Linux

User input:
--------------------------------------------------------------
$molecule
0 1
C	0.248806	-3.887800	-0.680396
C	-0.225147	-3.701456	0.621614
C	-0.370780	-2.345170	1.019896
H	-0.466300	-4.545233	1.285337
C	-0.000000	-1.450135	-0.000000
S	0.522786	-2.321334	-1.435271
C	-0.865597	-1.934439	2.378891
H	-1.092567	-2.819799	3.003720
H	-1.791940	-1.326210	2.313975
H	-0.114772	-1.325374	2.924390
H	0.448750	-4.815326	-1.228514
C	0.000000	0.000000	0.000000
C	0.070542	0.841660	1.113020
C	0.187101	2.227746	0.820578
H	0.038051	0.454925	2.142881
C	0.208076	2.475009	-0.563588
S	0.080917	0.967235	-1.464748
C	0.276318	3.288613	1.882380
H	0.238704	2.842244	2.894974
H	-0.557951	4.017140	1.808137
H	1.220618	3.867466	1.808230
H	0.288286	3.429678	-1.097114
$end

$rem
JOBTYPE		SP
EXCHANGE	HF
CORRELATION	pRIMP2
BASIS		cc-pvtz
METHOD		rimp2
AUX_BASIS	rimp2-cc-pvtz
SOLVENT_METHOD	PCM
PURECART	11111
SYMMETRY	false
MEM_TOTAL	110000
SCF_CONVERGENCE = 6
THRESH=10
GUI = 2
$end

$solvent
dielectric 4.90
$end
--------------------------------------------------------------

             Standard Nuclear Orientation (Angstroms)
    I     Atom           X                Y                Z
 ----------------------------------------------------------------
    1      C       0.2488060000    -3.8878000000    -0.6803960000
    2      C      -0.2251470000    -3.7014560000     0.6216140000
    3      C      -0.3707800000    -2.3451700000     1.0198960000
    4      H      -0.4663000000    -4.5452330000     1.2853370000
    5      C       0.0000000000    -1.4501350000     0.0000000000
    6      S       0.5227860000    -2.3213340000    -1.4352710000
    7      C      -0.8655970000    -1.9344390000     2.3788910000
    8      H      -1.0925670000    -2.8197990000     3.0037200000
    9      H      -1.7919400000    -1.3262100000     2.3139750000
   10      H      -0.1147720000    -1.3253740000     2.9243900000
   11      H       0.4487500000    -4.8153260000    -1.2285140000
   12      C       0.0000000000     0.0000000000     0.0000000000
   13      C       0.0705420000     0.8416600000     1.1130200000
   14      C       0.1871010000     2.2277460000     0.8205780000
   15      H       0.0380510000     0.4549250000     2.1428810000
   16      C       0.2080760000     2.4750090000    -0.5635880000
   17      S       0.0809170000     0.9672350000    -1.4647480000
   18      C       0.2763180000     3.2886130000     1.8823800000
   19      H       0.2387040000     2.8422440000     2.8949740000
   20      H      -0.5579510000     4.0171400000     1.8081370000
   21      H       1.2206180000     3.8674660000     1.8082300000
   22      H       0.2882860000     3.4296780000    -1.0971140000
 ----------------------------------------------------------------

   10   -1179.6850362644      5.18e-07  Convergence criterion met
 Total energy in the final basis set =    -1179.6850362644
        RIMP2         total energy =     -1181.6648062913 a.u.

                    Orbital Energies (a.u.)
 --------------------------------------------------------------

 Alpha MOs
 -- Occupied --
-91.9864 -91.9863 -11.2841 -11.2792 -11.2729 -11.2643 -11.2536 -11.2523
-11.2443 -11.2393 -11.2313 -11.2295  -8.9860  -8.9860  -6.6670  -6.6669
 -6.6664  -6.6664  -6.6658  -6.6658  -1.1808  -1.1505  -1.0411  -1.0273
 -0.9959  -0.9560  -0.9145  -0.8949  -0.8024  -0.7559  -0.7276  -0.7006
 -0.6620  -0.6150  -0.5909  -0.5821  -0.5702  -0.5629  -0.5514  -0.5395
 -0.5301  -0.5226  -0.5039  -0.4914  -0.4895  -0.4759  -0.4532  -0.3673
 -0.3463  -0.3385  -0.2715

          Ground-State Mulliken Net Atomic Charges

     Atom                 Charge (a.u.)
  ----------------------------------------
      1 C                    -0.213387
      2 C                    -0.253910
      3 C                     0.069209
      4 H                     0.185185
      5 C                    -0.050418
      6 S                     0.010641
      7 C                    -0.311094
      8 H                     0.117110
      9 H                     0.118317
     10 H                     0.104911
     11 H                     0.206580
     12 C                     0.025802
     13 C                    -0.230205
     14 C                     0.017391
     15 H                     0.195598
     16 C                    -0.246167
     17 S                     0.007280
     18 C                    -0.272029
     19 H                     0.101499
     20 H                     0.108620
     21 H                     0.109039
     22 H                     0.200027
  ----------------------------------------
  Sum of atomic charges =     0.000000

                    Cartesian Multipole Moments
 -----------------------------------------------------------------
    Charge (ESU x 10^10)
                -0.0000
    Dipole Moment (Debye)
         X      -0.3618      Y       0.1498      Z       2.8768
       Tot       2.9033
    Quadrupole Moments (Debye-Ang)
        XX     -91.9243     XY       1.6874     YY     -68.4131
        XZ      -2.0715     YZ      -1.0021     ZZ     -80.8300

 Total job time:  53.50s(wall), 1827.61s(cpu)
        *  Thank you very much for using Q-Chem.  Have a nice day.  *
