 Q-Chem 5.4, Q-Chem, Inc., Pleasanton, CA (2021)
 Q-Chem 5.4.0 for Intel X86 EM64T Linux

User input:
--------------------------------------------------------------
$molecule
0 1
C	0.674034	-3.828925	0.724460
C	0.641731	-3.645403	-0.661131
C	0.406834	-2.309612	-1.085203
H	0.787861	-4.476429	-1.367305
C	0.251813	-1.428104	0.000000
S	0.402734	-2.286131	1.527517
C	0.335682	-1.905091	-2.531478
H	0.489007	-2.777074	-3.196254
H	1.109183	-1.151090	-2.787305
H	-0.648644	-1.460194	-2.787282
H	0.834685	-4.742433	1.307907
C	0.000000	0.000000	0.000000
C	0.143630	0.832309	1.113020
C	0.380550	2.202961	0.820578
H	0.077556	0.449877	2.142881
C	0.422995	2.447456	-0.563588
S	0.164909	0.956502	-1.464748
C	0.561888	3.252016	1.882380
H	0.485513	2.810624	2.894974
H	-0.205711	4.050482	1.808137
H	1.553045	3.746365	1.808230
H	0.586105	3.391501	-1.097114
$end

$rem
JOBTYPE		SP
EXCHANGE	HF
CORRELATION	pRIMP2
BASIS		cc-pvtz
METHOD		rimp2
AUX_BASIS	rimp2-cc-pvtz
SOLVENT_METHOD	PCM
PURECART	11111
SYMMETRY	false
MEM_TOTAL	110000
SCF_CONVERGENCE = 6
THRESH=10
GUI = 2
$end

$solvent
dielectric 4.90
$end
--------------------------------------------------------------

             Standard Nuclear Orientation (Angstroms)
    I     Atom           X                Y                Z
 ----------------------------------------------------------------
    1      C       0.6740340000    -3.8289250000     0.7244600000
    2      C       0.6417310000    -3.6454030000    -0.6611310000
    3      C       0.4068340000    -2.3096120000    -1.0852030000
    4      H       0.7878610000    -4.4764290000    -1.3673050000
    5      C       0.2518130000    -1.4281040000     0.0000000000
    6      S       0.4027340000    -2.2861310000     1.5275170000
    7      C       0.3356820000    -1.9050910000    -2.5314780000
    8      H       0.4890070000    -2.7770740000    -3.1962540000
    9      H       1.1091830000    -1.1510900000    -2.7873050000
   10      H      -0.6486440000    -1.4601940000    -2.7872820000
   11      H       0.8346850000    -4.7424330000     1.3079070000
   12      C       0.0000000000     0.0000000000     0.0000000000
   13      C       0.1436300000     0.8323090000     1.1130200000
   14      C       0.3805500000     2.2029610000     0.8205780000
   15      H       0.0775560000     0.4498770000     2.1428810000
   16      C       0.4229950000     2.4474560000    -0.5635880000
   17      S       0.1649090000     0.9565020000    -1.4647480000
   18      C       0.5618880000     3.2520160000     1.8823800000
   19      H       0.4855130000     2.8106240000     2.8949740000
   20      H      -0.2057110000     4.0504820000     1.8081370000
   21      H       1.5530450000     3.7463650000     1.8082300000
   22      H       0.5861050000     3.3915010000    -1.0971140000
 ----------------------------------------------------------------

   10   -1179.6779960940      5.10e-07  Convergence criterion met
 Total energy in the final basis set =    -1179.6779960940
        RIMP2         total energy =     -1181.6605917171 a.u.

                    Orbital Energies (a.u.)
 --------------------------------------------------------------

 Alpha MOs
 -- Occupied --
-91.9851 -91.9845 -11.2825 -11.2791 -11.2718 -11.2643 -11.2525 -11.2517
-11.2433 -11.2411 -11.2293 -11.2291  -8.9849  -8.9844  -6.6658  -6.6654
 -6.6652  -6.6648  -6.6646  -6.6642  -1.1816  -1.1498  -1.0419  -1.0252
 -0.9985  -0.9522  -0.9143  -0.8957  -0.7987  -0.7653  -0.7196  -0.6956
 -0.6623  -0.6162  -0.5837  -0.5826  -0.5777  -0.5697  -0.5525  -0.5334
 -0.5228  -0.5208  -0.5115  -0.4974  -0.4881  -0.4672  -0.4499  -0.3706
 -0.3432  -0.3401  -0.2679

          Ground-State Mulliken Net Atomic Charges

     Atom                 Charge (a.u.)
  ----------------------------------------
      1 C                    -0.213414
      2 C                    -0.252880
      3 C                     0.053637
      4 H                     0.185565
      5 C                    -0.030526
      6 S                     0.004730
      7 C                    -0.322397
      8 H                     0.117412
      9 H                     0.115616
     10 H                     0.116244
     11 H                     0.206543
     12 C                     0.054391
     13 C                    -0.273386
     14 C                     0.042128
     15 H                     0.176059
     16 C                    -0.258537
     17 S                     0.028307
     18 C                    -0.268872
     19 H                     0.102861
     20 H                     0.108473
     21 H                     0.108673
     22 H                     0.199372
  ----------------------------------------
  Sum of atomic charges =     0.000000

                    Cartesian Multipole Moments
 -----------------------------------------------------------------
    Charge (ESU x 10^10)
                -0.0000
    Dipole Moment (Debye)
         X       0.6304      Y       0.2989      Z      -0.1624
       Tot       0.7163
    Quadrupole Moments (Debye-Ang)
        XX     -92.0379     XY      -0.3733     YY     -69.6760
        XZ      -0.2774     YZ       3.5000     ZZ     -79.7699

 Total job time:  53.09s(wall), 1782.90s(cpu)
        *  Thank you very much for using Q-Chem.  Have a nice day.  *
