 Q-Chem 5.4, Q-Chem, Inc., Pleasanton, CA (2021)
 Q-Chem 5.4.0 for Intel X86 EM64T Linux

User input:
--------------------------------------------------------------
$molecule
0 1
C	-0.713264	-3.887800	-0.126876
C	0.651267	-3.701456	0.113784
C	1.068787	-2.345170	0.188043
H	1.346782	-4.545233	0.236019
C	0.000000	-1.450135	0.000000
S	-1.504247	-2.321334	-0.265612
C	2.493059	-1.934439	0.439357
H	3.147809	-2.819799	0.554378
H	2.589987	-1.326210	1.362899
H	2.899892	-1.325374	-0.394786
H	-1.287774	-4.815326	-0.228603
C	0.000000	0.000000	0.000000
C	-0.003081	0.844605	1.113020
C	-0.007772	2.235575	0.820578
H	-0.001743	0.456510	2.142881
C	-0.008427	2.483726	-0.563588
S	-0.003691	0.970607	-1.464748
C	-0.011355	3.300181	1.882380
H	-0.009922	2.852233	2.894974
H	-0.905944	3.953225	1.808137
H	0.878901	3.959133	1.808230
H	-0.011727	3.441752	-1.097114
$end

$rem
JOBTYPE		SP
EXCHANGE	HF
CORRELATION	pRIMP2
BASIS		cc-pvtz
METHOD		rimp2
AUX_BASIS	rimp2-cc-pvtz
SOLVENT_METHOD	PCM
PURECART	11111
SYMMETRY	false
MEM_TOTAL	110000
SCF_CONVERGENCE = 6
THRESH=10
GUI = 2
$end

$solvent
dielectric 4.90
$end
--------------------------------------------------------------

             Standard Nuclear Orientation (Angstroms)
    I     Atom           X                Y                Z
 ----------------------------------------------------------------
    1      C      -0.7132640000    -3.8878000000    -0.1268760000
    2      C       0.6512670000    -3.7014560000     0.1137840000
    3      C       1.0687870000    -2.3451700000     0.1880430000
    4      H       1.3467820000    -4.5452330000     0.2360190000
    5      C       0.0000000000    -1.4501350000     0.0000000000
    6      S      -1.5042470000    -2.3213340000    -0.2656120000
    7      C       2.4930590000    -1.9344390000     0.4393570000
    8      H       3.1478090000    -2.8197990000     0.5543780000
    9      H       2.5899870000    -1.3262100000     1.3628990000
   10      H       2.8998920000    -1.3253740000    -0.3947860000
   11      H      -1.2877740000    -4.8153260000    -0.2286030000
   12      C       0.0000000000     0.0000000000     0.0000000000
   13      C      -0.0030810000     0.8446050000     1.1130200000
   14      C      -0.0077720000     2.2355750000     0.8205780000
   15      H      -0.0017430000     0.4565100000     2.1428810000
   16      C      -0.0084270000     2.4837260000    -0.5635880000
   17      S      -0.0036910000     0.9706070000    -1.4647480000
   18      C      -0.0113550000     3.3001810000     1.8823800000
   19      H      -0.0099220000     2.8522330000     2.8949740000
   20      H      -0.9059440000     3.9532250000     1.8081370000
   21      H       0.8789010000     3.9591330000     1.8082300000
   22      H      -0.0117270000     3.4417520000    -1.0971140000
 ----------------------------------------------------------------

   10   -1179.6859300049      5.13e-07  Convergence criterion met
 Total energy in the final basis set =    -1179.6859300049
        RIMP2         total energy =     -1181.6634434320 a.u.

                    Orbital Energies (a.u.)
 --------------------------------------------------------------

 Alpha MOs
 -- Occupied --
-91.9857 -91.9852 -11.2791 -11.2735 -11.2730 -11.2650 -11.2540 -11.2509
-11.2422 -11.2415 -11.2292 -11.2291  -8.9851  -8.9847  -6.6660  -6.6656
 -6.6655  -6.6650  -6.6648  -6.6644  -1.1777  -1.1496  -1.0391  -1.0230
 -0.9965  -0.9543  -0.9130  -0.8926  -0.8001  -0.7528  -0.7305  -0.6951
 -0.6621  -0.6164  -0.5826  -0.5794  -0.5704  -0.5684  -0.5516  -0.5305
 -0.5299  -0.5198  -0.5071  -0.4920  -0.4889  -0.4648  -0.4627  -0.3464
 -0.3382  -0.3211  -0.3044

          Ground-State Mulliken Net Atomic Charges

     Atom                 Charge (a.u.)
  ----------------------------------------
      1 C                    -0.212142
      2 C                    -0.248624
      3 C                     0.047784
      4 H                     0.185318
      5 C                    -0.049051
      6 S                     0.025801
      7 C                    -0.282092
      8 H                     0.108243
      9 H                     0.109441
     10 H                     0.111176
     11 H                     0.204171
     12 C                    -0.012597
     13 C                    -0.222784
     14 C                     0.015494
     15 H                     0.186005
     16 C                    -0.238024
     17 S                     0.026008
     18 C                    -0.271384
     19 H                     0.102792
     20 H                     0.108411
     21 H                     0.107789
     22 H                     0.198264
  ----------------------------------------
  Sum of atomic charges =     0.000000

                    Cartesian Multipole Moments
 -----------------------------------------------------------------
    Charge (ESU x 10^10)
                -0.0000
    Dipole Moment (Debye)
         X       1.4916      Y       0.2360      Z       1.7394
       Tot       2.3035
    Quadrupole Moments (Debye-Ang)
        XX     -86.3318     XY      -2.2462     YY     -68.7165
        XZ       1.1171     YZ       0.7480     ZZ     -86.5562

 Total job time:  55.78s(wall), 1804.03s(cpu)
        *  Thank you very much for using Q-Chem.  Have a nice day.  *
