 Q-Chem 5.4, Q-Chem, Inc., Pleasanton, CA (2021)
 Q-Chem 5.4.0 for Intel X86 EM64T Linux

User input:
--------------------------------------------------------------
$molecule
0 1
C	0.554267	-3.887800	0.466510
C	-0.507121	-3.701456	-0.424173
C	-0.831575	-2.345170	-0.697244
H	-1.048337	-4.545233	-0.877789
C	0.000000	-1.450135	0.000000
S	1.169911	-2.321334	0.982150
C	-1.939374	-1.934439	-1.627024
H	-2.448894	-2.819799	-2.054010
H	-1.561545	-1.326210	-2.475299
H	-2.708773	-1.325374	-1.108051
H	1.000944	-4.815326	0.841863
C	0.000000	0.000000	0.000000
C	0.419634	0.732990	1.113020
C	1.111057	1.939951	0.820578
H	0.226746	0.396221	2.142881
C	1.234565	2.155183	-0.563588
S	0.482106	0.842416	-1.464748
C	1.640257	2.863718	1.882380
H	1.417524	2.475067	2.894974
H	1.192042	3.876565	1.808137
H	2.740717	2.989259	1.808230
H	1.710720	2.986508	-1.097114
$end

$rem
JOBTYPE		SP
EXCHANGE	HF
CORRELATION	pRIMP2
BASIS		cc-pvtz
METHOD		rimp2
AUX_BASIS	rimp2-cc-pvtz
SOLVENT_METHOD	PCM
PURECART	11111
SYMMETRY	false
MEM_TOTAL	110000
SCF_CONVERGENCE = 6
THRESH=10
GUI = 2
$end

$solvent
dielectric 4.90
$end
--------------------------------------------------------------

             Standard Nuclear Orientation (Angstroms)
    I     Atom           X                Y                Z
 ----------------------------------------------------------------
    1      C       0.5542670000    -3.8878000000     0.4665100000
    2      C      -0.5071210000    -3.7014560000    -0.4241730000
    3      C      -0.8315750000    -2.3451700000    -0.6972440000
    4      H      -1.0483370000    -4.5452330000    -0.8777890000
    5      C       0.0000000000    -1.4501350000     0.0000000000
    6      S       1.1699110000    -2.3213340000     0.9821500000
    7      C      -1.9393740000    -1.9344390000    -1.6270240000
    8      H      -2.4488940000    -2.8197990000    -2.0540100000
    9      H      -1.5615450000    -1.3262100000    -2.4752990000
   10      H      -2.7087730000    -1.3253740000    -1.1080510000
   11      H       1.0009440000    -4.8153260000     0.8418630000
   12      C       0.0000000000     0.0000000000     0.0000000000
   13      C       0.4196340000     0.7329900000     1.1130200000
   14      C       1.1110570000     1.9399510000     0.8205780000
   15      H       0.2267460000     0.3962210000     2.1428810000
   16      C       1.2345650000     2.1551830000    -0.5635880000
   17      S       0.4821060000     0.8424160000    -1.4647480000
   18      C       1.6402570000     2.8637180000     1.8823800000
   19      H       1.4175240000     2.4750670000     2.8949740000
   20      H       1.1920420000     3.8765650000     1.8081370000
   21      H       2.7407170000     2.9892590000     1.8082300000
   22      H       1.7107200000     2.9865080000    -1.0971140000
 ----------------------------------------------------------------

   10   -1179.6718905320      5.16e-07  Convergence criterion met
 Total energy in the final basis set =    -1179.6718905320
        RIMP2         total energy =     -1181.6539821768 a.u.

                    Orbital Energies (a.u.)
 --------------------------------------------------------------

 Alpha MOs
 -- Occupied --
-91.9848 -91.9847 -11.2749 -11.2736 -11.2707 -11.2698 -11.2524 -11.2483
-11.2454 -11.2411 -11.2296 -11.2287  -8.9846  -8.9842  -6.6655  -6.6651
 -6.6649  -6.6646  -6.6643  -6.6639  -1.1806  -1.1490  -1.0408  -1.0222
 -0.9986  -0.9514  -0.9142  -0.8925  -0.7983  -0.7596  -0.7257  -0.6921
 -0.6610  -0.6173  -0.5829  -0.5796  -0.5737  -0.5696  -0.5509  -0.5334
 -0.5263  -0.5181  -0.5080  -0.4947  -0.4822  -0.4673  -0.4588  -0.3461
 -0.3437  -0.3399  -0.2820

          Ground-State Mulliken Net Atomic Charges

     Atom                 Charge (a.u.)
  ----------------------------------------
      1 C                    -0.217009
      2 C                    -0.248666
      3 C                     0.034943
      4 H                     0.184031
      5 C                    -0.021976
      6 S                     0.023902
      7 C                    -0.291539
      8 H                     0.109178
      9 H                     0.109179
     10 H                     0.111576
     11 H                     0.203849
     12 C                     0.011727
     13 C                    -0.307715
     14 C                     0.058614
     15 H                     0.190870
     16 C                    -0.236481
     17 S                     0.034805
     18 C                    -0.267920
     19 H                     0.103287
     20 H                     0.108043
     21 H                     0.108607
     22 H                     0.198694
  ----------------------------------------
  Sum of atomic charges =     0.000000

                    Cartesian Multipole Moments
 -----------------------------------------------------------------
    Charge (ESU x 10^10)
                -0.0000
    Dipole Moment (Debye)
         X      -0.0402      Y       0.4414      Z       0.5534
       Tot       0.7090
    Quadrupole Moments (Debye-Ang)
        XX     -86.0619     XY       6.6807     YY     -71.8537
        XZ       3.7840     YZ       2.4114     ZZ     -83.8449

 Total job time:  47.09s(wall), 1692.72s(cpu)
        *  Thank you very much for using Q-Chem.  Have a nice day.  *
