 Q-Chem 5.4, Q-Chem, Inc., Pleasanton, CA (2021)
 Q-Chem 5.4.0 for Intel X86 EM64T Linux

User input:
--------------------------------------------------------------
$molecule
0 1
C	0.124726	-3.887800	0.713644
C	-0.115824	-3.701456	-0.650907
C	-0.188844	-2.345170	-1.068646
H	-0.238841	-4.545233	-1.346284
C	0.000000	-1.450135	0.000000
S	0.264890	-2.321334	1.504375
C	-0.439816	-1.934439	-2.492978
H	-0.555669	-2.819799	-3.147582
H	0.394879	-1.326210	-2.899931
H	-1.362799	-1.325374	-2.589982
H	0.225628	-4.815326	1.288299
C	0.000000	0.000000	0.000000
C	0.354153	0.766774	1.113020
C	0.937751	2.029404	0.820578
H	0.191350	0.414475	2.142881
C	1.042030	2.254581	-0.563588
S	0.406851	0.881228	-1.464748
C	1.384426	2.995779	1.882380
H	1.196413	2.589194	2.894974
H	0.849641	3.965707	1.808137
H	2.469756	3.216753	1.808230
H	1.443919	3.124243	-1.097114
$end

$rem
JOBTYPE		SP
EXCHANGE	HF
CORRELATION	pRIMP2
BASIS		cc-pvtz
METHOD		rimp2
AUX_BASIS	rimp2-cc-pvtz
SOLVENT_METHOD	PCM
PURECART	11111
SYMMETRY	false
MEM_TOTAL	110000
SCF_CONVERGENCE = 6
THRESH=10
GUI = 2
$end

$solvent
dielectric 4.90
$end
--------------------------------------------------------------

             Standard Nuclear Orientation (Angstroms)
    I     Atom           X                Y                Z
 ----------------------------------------------------------------
    1      C       0.1247260000    -3.8878000000     0.7136440000
    2      C      -0.1158240000    -3.7014560000    -0.6509070000
    3      C      -0.1888440000    -2.3451700000    -1.0686460000
    4      H      -0.2388410000    -4.5452330000    -1.3462840000
    5      C       0.0000000000    -1.4501350000     0.0000000000
    6      S       0.2648900000    -2.3213340000     1.5043750000
    7      C      -0.4398160000    -1.9344390000    -2.4929780000
    8      H      -0.5556690000    -2.8197990000    -3.1475820000
    9      H       0.3948790000    -1.3262100000    -2.8999310000
   10      H      -1.3627990000    -1.3253740000    -2.5899820000
   11      H       0.2256280000    -4.8153260000     1.2882990000
   12      C       0.0000000000     0.0000000000     0.0000000000
   13      C       0.3541530000     0.7667740000     1.1130200000
   14      C       0.9377510000     2.0294040000     0.8205780000
   15      H       0.1913500000     0.4144750000     2.1428810000
   16      C       1.0420300000     2.2545810000    -0.5635880000
   17      S       0.4068510000     0.8812280000    -1.4647480000
   18      C       1.3844260000     2.9957790000     1.8823800000
   19      H       1.1964130000     2.5891940000     2.8949740000
   20      H       0.8496410000     3.9657070000     1.8081370000
   21      H       2.4697560000     3.2167530000     1.8082300000
   22      H       1.4439190000     3.1242430000    -1.0971140000
 ----------------------------------------------------------------

   10   -1179.6743771396      5.15e-07  Convergence criterion met
 Total energy in the final basis set =    -1179.6743771396
        RIMP2         total energy =     -1181.6577905020 a.u.

                    Orbital Energies (a.u.)
 --------------------------------------------------------------

 Alpha MOs
 -- Occupied --
-91.9851 -91.9841 -11.2808 -11.2784 -11.2706 -11.2666 -11.2530 -11.2502
-11.2429 -11.2427 -11.2294 -11.2291  -8.9850  -8.9840  -6.6659  -6.6653
 -6.6649  -6.6647  -6.6644  -6.6637  -1.1819  -1.1496  -1.0421  -1.0247
 -0.9989  -0.9519  -0.9144  -0.8953  -0.7986  -0.7651  -0.7203  -0.6949
 -0.6619  -0.6166  -0.5836  -0.5820  -0.5781  -0.5699  -0.5523  -0.5336
 -0.5233  -0.5203  -0.5112  -0.4973  -0.4866  -0.4673  -0.4506  -0.3687
 -0.3433  -0.3405  -0.2681

          Ground-State Mulliken Net Atomic Charges

     Atom                 Charge (a.u.)
  ----------------------------------------
      1 C                    -0.215991
      2 C                    -0.251500
      3 C                     0.048585
      4 H                     0.185126
      5 C                    -0.025070
      6 S                     0.005369
      7 C                    -0.321170
      8 H                     0.116345
      9 H                     0.113030
     10 H                     0.118787
     11 H                     0.205847
     12 C                     0.048075
     13 C                    -0.284021
     14 C                     0.048538
     15 H                     0.177971
     16 C                    -0.255528
     17 S                     0.034113
     18 C                    -0.268125
     19 H                     0.103088
     20 H                     0.108487
     21 H                     0.108899
     22 H                     0.199144
  ----------------------------------------
  Sum of atomic charges =     0.000000

                    Cartesian Multipole Moments
 -----------------------------------------------------------------
    Charge (ESU x 10^10)
                -0.0000
    Dipole Moment (Debye)
         X       0.5958      Y       0.3110      Z      -0.0866
       Tot       0.6776
    Quadrupole Moments (Debye-Ang)
        XX     -90.5801     XY       4.6604     YY     -71.0362
        XZ       1.5956     YZ       3.4410     ZZ     -80.0051

 Total job time:  51.89s(wall), 1844.53s(cpu)
        *  Thank you very much for using Q-Chem.  Have a nice day.  *
