 Q-Chem 5.4, Q-Chem, Inc., Pleasanton, CA (2021)
 Q-Chem 5.4.0 for Intel X86 EM64T Linux

User input:
--------------------------------------------------------------
$molecule
0 1
C	0.246754	-3.887800	0.681143
C	-0.227093	-3.701456	-0.620906
C	-0.371543	-2.345170	-1.019618
H	-0.468992	-4.545233	-1.284357
C	0.000000	-1.450135	0.000000
S	0.522097	-2.321334	1.435522
C	-0.866035	-1.934439	-2.378731
H	-1.093799	-2.819799	-3.003272
H	-0.114688	-1.326210	-2.924444
H	-1.791841	-1.325374	-2.313987
H	0.445911	-4.815326	1.229547
C	0.000000	0.000000	0.000000
C	0.645024	0.545262	1.113020
C	1.707554	1.442954	0.820578
H	0.348587	0.294774	2.142881
C	1.897227	1.602964	-0.563588
S	0.741155	0.626722	-1.464748
C	2.520787	2.130014	1.882380
H	2.178559	1.840981	2.894974
H	2.446016	3.235078	1.808137
H	3.597818	1.871604	1.808230
H	2.628997	2.221299	-1.097114
$end

$rem
JOBTYPE		SP
EXCHANGE	HF
CORRELATION	pRIMP2
BASIS		cc-pvtz
METHOD		rimp2
AUX_BASIS	rimp2-cc-pvtz
SOLVENT_METHOD	PCM
PURECART	11111
SYMMETRY	false
MEM_TOTAL	110000
SCF_CONVERGENCE = 6
THRESH=10
GUI = 2
$end

$solvent
dielectric 4.90
$end
--------------------------------------------------------------

             Standard Nuclear Orientation (Angstroms)
    I     Atom           X                Y                Z
 ----------------------------------------------------------------
    1      C       0.2467540000    -3.8878000000     0.6811430000
    2      C      -0.2270930000    -3.7014560000    -0.6209060000
    3      C      -0.3715430000    -2.3451700000    -1.0196180000
    4      H      -0.4689920000    -4.5452330000    -1.2843570000
    5      C       0.0000000000    -1.4501350000     0.0000000000
    6      S       0.5220970000    -2.3213340000     1.4355220000
    7      C      -0.8660350000    -1.9344390000    -2.3787310000
    8      H      -1.0937990000    -2.8197990000    -3.0032720000
    9      H      -0.1146880000    -1.3262100000    -2.9244440000
   10      H      -1.7918410000    -1.3253740000    -2.3139870000
   11      H       0.4459110000    -4.8153260000     1.2295470000
   12      C       0.0000000000     0.0000000000     0.0000000000
   13      C       0.6450240000     0.5452620000     1.1130200000
   14      C       1.7075540000     1.4429540000     0.8205780000
   15      H       0.3485870000     0.2947740000     2.1428810000
   16      C       1.8972270000     1.6029640000    -0.5635880000
   17      S       0.7411550000     0.6267220000    -1.4647480000
   18      C       2.5207870000     2.1300140000     1.8823800000
   19      H       2.1785590000     1.8409810000     2.8949740000
   20      H       2.4460160000     3.2350780000     1.8081370000
   21      H       3.5978180000     1.8716040000     1.8082300000
   22      H       2.6289970000     2.2212990000    -1.0971140000
 ----------------------------------------------------------------

   10   -1179.6367982943      8.25e-07  Convergence criterion met
 Total energy in the final basis set =    -1179.6367982943
        RIMP2         total energy =     -1181.6289253973 a.u.

                    Orbital Energies (a.u.)
 --------------------------------------------------------------

 Alpha MOs
 -- Occupied --
-91.9850 -91.9794 -11.2833 -11.2775 -11.2663 -11.2611 -11.2572 -11.2554
-11.2394 -11.2382 -11.2312 -11.2258  -8.9854  -8.9795  -6.6662  -6.6654
 -6.6650  -6.6604  -6.6598  -6.6592  -1.1881  -1.1470  -1.0451  -1.0219
 -1.0008  -0.9492  -0.9141  -0.8934  -0.7965  -0.7658  -0.7245  -0.6912
 -0.6576  -0.6197  -0.5869  -0.5816  -0.5770  -0.5701  -0.5505  -0.5344
 -0.5273  -0.5166  -0.5090  -0.4962  -0.4740  -0.4664  -0.4495  -0.3630
 -0.3469  -0.3364  -0.2659

          Ground-State Mulliken Net Atomic Charges

     Atom                 Charge (a.u.)
  ----------------------------------------
      1 C                    -0.242947
      2 C                    -0.242646
      3 C                     0.019371
      4 H                     0.183121
      5 C                    -0.001196
      6 S                    -0.001422
      7 C                    -0.311219
      8 H                     0.110966
      9 H                     0.109178
     10 H                     0.114496
     11 H                     0.201650
     12 C                    -0.056494
     13 C                    -0.201639
     14 C                     0.023002
     15 H                     0.191255
     16 C                    -0.203600
     17 S                     0.050242
     18 C                    -0.265529
     19 H                     0.103946
     20 H                     0.108881
     21 H                     0.108291
     22 H                     0.202293
  ----------------------------------------
  Sum of atomic charges =     0.000000

                    Cartesian Multipole Moments
 -----------------------------------------------------------------
    Charge (ESU x 10^10)
                -0.0000
    Dipole Moment (Debye)
         X       1.7403      Y       1.0815      Z       0.1617
       Tot       2.0554
    Quadrupole Moments (Debye-Ang)
        XX     -84.6264     XY       7.0770     YY     -77.8875
        XZ       2.5811     YZ       3.1156     ZZ     -80.5657

 Total job time:  50.08s(wall), 1768.68s(cpu)
        *  Thank you very much for using Q-Chem.  Have a nice day.  *
