 Q-Chem 5.4, Q-Chem, Inc., Pleasanton, CA (2021)
 Q-Chem 5.4.0 for Intel X86 EM64T Linux

User input:
--------------------------------------------------------------
$molecule
0 1
C	0.246754	-3.887800	0.681143
C	-0.227093	-3.701456	-0.620906
C	-0.371543	-2.345170	-1.019618
H	-0.468992	-4.545233	-1.284357
C	0.000000	-1.450135	0.000000
S	0.522097	-2.321334	1.435522
C	-0.866035	-1.934439	-2.378731
H	-1.093799	-2.819799	-3.003272
H	-0.114688	-1.326210	-2.924444
H	-1.791841	-1.325374	-2.313987
H	0.445911	-4.815326	1.229547
C	0.000000	0.000000	0.000000
C	0.419634	0.732990	1.113020
C	1.111057	1.939951	0.820578
H	0.226746	0.396221	2.142881
C	1.234565	2.155183	-0.563588
S	0.482106	0.842416	-1.464748
C	1.640257	2.863718	1.882380
H	1.417524	2.475067	2.894974
H	1.192042	3.876565	1.808137
H	2.740717	2.989259	1.808230
H	1.710720	2.986508	-1.097114
$end

$rem
JOBTYPE		SP
EXCHANGE	HF
CORRELATION	pRIMP2
BASIS		cc-pvtz
METHOD		rimp2
AUX_BASIS	rimp2-cc-pvtz
SOLVENT_METHOD	PCM
PURECART	11111
SYMMETRY	false
MEM_TOTAL	110000
SCF_CONVERGENCE = 6
THRESH=10
GUI = 2
$end

$solvent
dielectric 4.90
$end
--------------------------------------------------------------

             Standard Nuclear Orientation (Angstroms)
    I     Atom           X                Y                Z
 ----------------------------------------------------------------
    1      C       0.2467540000    -3.8878000000     0.6811430000
    2      C      -0.2270930000    -3.7014560000    -0.6209060000
    3      C      -0.3715430000    -2.3451700000    -1.0196180000
    4      H      -0.4689920000    -4.5452330000    -1.2843570000
    5      C       0.0000000000    -1.4501350000     0.0000000000
    6      S       0.5220970000    -2.3213340000     1.4355220000
    7      C      -0.8660350000    -1.9344390000    -2.3787310000
    8      H      -1.0937990000    -2.8197990000    -3.0032720000
    9      H      -0.1146880000    -1.3262100000    -2.9244440000
   10      H      -1.7918410000    -1.3253740000    -2.3139870000
   11      H       0.4459110000    -4.8153260000     1.2295470000
   12      C       0.0000000000     0.0000000000     0.0000000000
   13      C       0.4196340000     0.7329900000     1.1130200000
   14      C       1.1110570000     1.9399510000     0.8205780000
   15      H       0.2267460000     0.3962210000     2.1428810000
   16      C       1.2345650000     2.1551830000    -0.5635880000
   17      S       0.4821060000     0.8424160000    -1.4647480000
   18      C       1.6402570000     2.8637180000     1.8823800000
   19      H       1.4175240000     2.4750670000     2.8949740000
   20      H       1.1920420000     3.8765650000     1.8081370000
   21      H       2.7407170000     2.9892590000     1.8082300000
   22      H       1.7107200000     2.9865080000    -1.0971140000
 ----------------------------------------------------------------

   10   -1179.6701250682      5.25e-07  Convergence criterion met
 Total energy in the final basis set =    -1179.6701250682
        RIMP2         total energy =     -1181.6542994511 a.u.

                    Orbital Energies (a.u.)
 --------------------------------------------------------------

 Alpha MOs
 -- Occupied --
-91.9852 -91.9838 -11.2784 -11.2772 -11.2695 -11.2691 -11.2534 -11.2483
-11.2450 -11.2420 -11.2297 -11.2290  -8.9851  -8.9836  -6.6660  -6.6654
 -6.6648  -6.6645  -6.6640  -6.6633  -1.1823  -1.1494  -1.0422  -1.0239
 -0.9992  -0.9514  -0.9145  -0.8945  -0.7983  -0.7644  -0.7216  -0.6938
 -0.6613  -0.6170  -0.5837  -0.5803  -0.5785  -0.5701  -0.5518  -0.5338
 -0.5245  -0.5192  -0.5102  -0.4970  -0.4843  -0.4676  -0.4522  -0.3648
 -0.3439  -0.3402  -0.2695

          Ground-State Mulliken Net Atomic Charges

     Atom                 Charge (a.u.)
  ----------------------------------------
      1 C                    -0.220704
      2 C                    -0.248568
      3 C                     0.038575
      4 H                     0.184647
      5 C                    -0.016481
      6 S                     0.009241
      7 C                    -0.315722
      8 H                     0.114278
      9 H                     0.111822
     10 H                     0.117992
     11 H                     0.204839
     12 C                     0.031794
     13 C                    -0.287820
     14 C                     0.051222
     15 H                     0.182164
     16 C                    -0.248092
     17 S                     0.038513
     18 C                    -0.267621
     19 H                     0.103313
     20 H                     0.108513
     21 H                     0.108976
     22 H                     0.199119
  ----------------------------------------
  Sum of atomic charges =     0.000000

                    Cartesian Multipole Moments
 -----------------------------------------------------------------
    Charge (ESU x 10^10)
                -0.0000
    Dipole Moment (Debye)
         X       0.5646      Y       0.4618      Z       0.0485
       Tot       0.7310
    Quadrupole Moments (Debye-Ang)
        XX     -89.1376     XY       5.7579     YY     -72.0295
        XZ       2.6752     YZ       3.2666     ZZ     -80.6361

 Total job time:  46.43s(wall), 1673.70s(cpu)
        *  Thank you very much for using Q-Chem.  Have a nice day.  *
