 Q-Chem 5.4, Q-Chem, Inc., Pleasanton, CA (2021)
 Q-Chem 5.4.0 for Intel X86 EM64T Linux

User input:
--------------------------------------------------------------
$molecule
0 1
C	-0.681143	-3.887800	0.246754
C	0.620906	-3.701456	-0.227093
C	1.019618	-2.345170	-0.371543
H	1.284357	-4.545233	-0.468992
C	0.000000	-1.450135	0.000000
S	-1.435522	-2.321334	0.522097
C	2.378731	-1.934439	-0.866035
H	3.003272	-2.819799	-1.093799
H	2.924444	-1.326210	-0.114688
H	2.313987	-1.325374	-1.791841
H	-1.229547	-4.815326	0.445911
C	0.000000	0.000000	0.000000
C	0.354153	0.766774	1.113020
C	0.937751	2.029404	0.820578
H	0.191350	0.414475	2.142881
C	1.042030	2.254581	-0.563588
S	0.406851	0.881228	-1.464748
C	1.384426	2.995779	1.882380
H	1.196413	2.589194	2.894974
H	0.849641	3.965707	1.808137
H	2.469756	3.216753	1.808230
H	1.443919	3.124243	-1.097114
$end

$rem
JOBTYPE		SP
EXCHANGE	HF
CORRELATION	pRIMP2
BASIS		cc-pvtz
METHOD		rimp2
AUX_BASIS	rimp2-cc-pvtz
SOLVENT_METHOD	PCM
PURECART	11111
SYMMETRY	false
MEM_TOTAL	110000
SCF_CONVERGENCE = 6
THRESH=10
GUI = 2
$end

$solvent
dielectric 4.90
$end
--------------------------------------------------------------

             Standard Nuclear Orientation (Angstroms)
    I     Atom           X                Y                Z
 ----------------------------------------------------------------
    1      C      -0.6811430000    -3.8878000000     0.2467540000
    2      C       0.6209060000    -3.7014560000    -0.2270930000
    3      C       1.0196180000    -2.3451700000    -0.3715430000
    4      H       1.2843570000    -4.5452330000    -0.4689920000
    5      C       0.0000000000    -1.4501350000     0.0000000000
    6      S      -1.4355220000    -2.3213340000     0.5220970000
    7      C       2.3787310000    -1.9344390000    -0.8660350000
    8      H       3.0032720000    -2.8197990000    -1.0937990000
    9      H       2.9244440000    -1.3262100000    -0.1146880000
   10      H       2.3139870000    -1.3253740000    -1.7918410000
   11      H      -1.2295470000    -4.8153260000     0.4459110000
   12      C       0.0000000000     0.0000000000     0.0000000000
   13      C       0.3541530000     0.7667740000     1.1130200000
   14      C       0.9377510000     2.0294040000     0.8205780000
   15      H       0.1913500000     0.4144750000     2.1428810000
   16      C       1.0420300000     2.2545810000    -0.5635880000
   17      S       0.4068510000     0.8812280000    -1.4647480000
   18      C       1.3844260000     2.9957790000     1.8823800000
   19      H       1.1964130000     2.5891940000     2.8949740000
   20      H       0.8496410000     3.9657070000     1.8081370000
   21      H       2.4697560000     3.2167530000     1.8082300000
   22      H       1.4439190000     3.1242430000    -1.0971140000
 ----------------------------------------------------------------

   10   -1179.6735820257      5.46e-07  Convergence criterion met
 Total energy in the final basis set =    -1179.6735820257
        RIMP2         total energy =     -1181.6557140670 a.u.

                    Orbital Energies (a.u.)
 --------------------------------------------------------------

 Alpha MOs
 -- Occupied --
-91.9851 -91.9830 -11.2755 -11.2745 -11.2696 -11.2695 -11.2518 -11.2504
-11.2461 -11.2414 -11.2297 -11.2267  -8.9847  -8.9827  -6.6656  -6.6650
 -6.6644  -6.6636  -6.6630  -6.6624  -1.1793  -1.1490  -1.0404  -1.0205
 -0.9977  -0.9537  -0.9126  -0.8923  -0.7978  -0.7557  -0.7291  -0.6950
 -0.6602  -0.6170  -0.5815  -0.5790  -0.5730  -0.5695  -0.5507  -0.5311
 -0.5279  -0.5196  -0.5106  -0.4924  -0.4812  -0.4650  -0.4588  -0.3471
 -0.3415  -0.3263  -0.2940

          Ground-State Mulliken Net Atomic Charges

     Atom                 Charge (a.u.)
  ----------------------------------------
      1 C                    -0.216156
      2 C                    -0.252059
      3 C                     0.059962
      4 H                     0.184794
      5 C                    -0.029213
      6 S                     0.022055
      7 C                    -0.287081
      8 H                     0.109250
      9 H                     0.112039
     10 H                     0.112777
     11 H                     0.203084
     12 C                    -0.054544
     13 C                    -0.217428
     14 C                     0.019907
     15 H                     0.186178
     16 C                    -0.227199
     17 S                     0.025703
     18 C                    -0.269601
     19 H                     0.103164
     20 H                     0.108194
     21 H                     0.107435
     22 H                     0.198739
  ----------------------------------------
  Sum of atomic charges =     0.000000

                    Cartesian Multipole Moments
 -----------------------------------------------------------------
    Charge (ESU x 10^10)
                -0.0000
    Dipole Moment (Debye)
         X       2.3432      Y       0.5323      Z       0.9652
       Tot       2.5895
    Quadrupole Moments (Debye-Ang)
        XX     -85.1834     XY       2.1701     YY     -71.4891
        XZ      -1.6842     YZ       1.8212     ZZ     -85.7533

 Total job time:  55.12s(wall), 1857.07s(cpu)
        *  Thank you very much for using Q-Chem.  Have a nice day.  *
