 Q-Chem 5.4, Q-Chem, Inc., Pleasanton, CA (2021)
 Q-Chem 5.4.0 for Intel X86 EM64T Linux

User input:
--------------------------------------------------------------
$molecule
0 1
C	-0.466510	-3.887800	0.554267
C	0.424173	-3.701456	-0.507121
C	0.697244	-2.345170	-0.831575
H	0.877789	-4.545233	-1.048337
C	0.000000	-1.450135	0.000000
S	-0.982150	-2.321334	1.169911
C	1.627024	-1.934439	-1.939374
H	2.054010	-2.819799	-2.448894
H	2.475299	-1.326210	-1.561545
H	1.108051	-1.325374	-2.708773
H	-0.841863	-4.815326	1.000944
C	0.000000	0.000000	0.000000
C	0.143630	0.832309	1.113020
C	0.380550	2.202961	0.820578
H	0.077556	0.449877	2.142881
C	0.422995	2.447456	-0.563588
S	0.164909	0.956502	-1.464748
C	0.561888	3.252016	1.882380
H	0.485513	2.810624	2.894974
H	-0.205711	4.050482	1.808137
H	1.553045	3.746365	1.808230
H	0.586105	3.391501	-1.097114
$end

$rem
JOBTYPE		SP
EXCHANGE	HF
CORRELATION	pRIMP2
BASIS		cc-pvtz
METHOD		rimp2
AUX_BASIS	rimp2-cc-pvtz
SOLVENT_METHOD	PCM
PURECART	11111
SYMMETRY	false
MEM_TOTAL	110000
SCF_CONVERGENCE = 6
THRESH=10
GUI = 2
$end

$solvent
dielectric 4.90
$end
--------------------------------------------------------------

             Standard Nuclear Orientation (Angstroms)
    I     Atom           X                Y                Z
 ----------------------------------------------------------------
    1      C      -0.4665100000    -3.8878000000     0.5542670000
    2      C       0.4241730000    -3.7014560000    -0.5071210000
    3      C       0.6972440000    -2.3451700000    -0.8315750000
    4      H       0.8777890000    -4.5452330000    -1.0483370000
    5      C       0.0000000000    -1.4501350000     0.0000000000
    6      S      -0.9821500000    -2.3213340000     1.1699110000
    7      C       1.6270240000    -1.9344390000    -1.9393740000
    8      H       2.0540100000    -2.8197990000    -2.4488940000
    9      H       2.4752990000    -1.3262100000    -1.5615450000
   10      H       1.1080510000    -1.3253740000    -2.7087730000
   11      H      -0.8418630000    -4.8153260000     1.0009440000
   12      C       0.0000000000     0.0000000000     0.0000000000
   13      C       0.1436300000     0.8323090000     1.1130200000
   14      C       0.3805500000     2.2029610000     0.8205780000
   15      H       0.0775560000     0.4498770000     2.1428810000
   16      C       0.4229950000     2.4474560000    -0.5635880000
   17      S       0.1649090000     0.9565020000    -1.4647480000
   18      C       0.5618880000     3.2520160000     1.8823800000
   19      H       0.4855130000     2.8106240000     2.8949740000
   20      H      -0.2057110000     4.0504820000     1.8081370000
   21      H       1.5530450000     3.7463650000     1.8082300000
   22      H       0.5861050000     3.3915010000    -1.0971140000
 ----------------------------------------------------------------

   10   -1179.6837968363      5.08e-07  Convergence criterion met
 Total energy in the final basis set =    -1179.6837968363
        RIMP2         total energy =     -1181.6636368914 a.u.

                    Orbital Energies (a.u.)
 --------------------------------------------------------------

 Alpha MOs
 -- Occupied --
-91.9857 -91.9851 -11.2820 -11.2771 -11.2720 -11.2646 -11.2522 -11.2515
-11.2430 -11.2412 -11.2291 -11.2283  -8.9853  -8.9848  -6.6662  -6.6657
 -6.6657  -6.6652  -6.6651  -6.6646  -1.1796  -1.1498  -1.0406  -1.0233
 -0.9981  -0.9531  -0.9137  -0.8939  -0.7992  -0.7614  -0.7229  -0.6951
 -0.6620  -0.6163  -0.5830  -0.5775  -0.5766  -0.5697  -0.5517  -0.5326
 -0.5261  -0.5194  -0.5098  -0.4957  -0.4874  -0.4672  -0.4558  -0.3586
 -0.3425  -0.3381  -0.2774

          Ground-State Mulliken Net Atomic Charges

     Atom                 Charge (a.u.)
  ----------------------------------------
      1 C                    -0.215453
      2 C                    -0.250183
      3 C                     0.037739
      4 H                     0.185554
      5 C                    -0.029621
      6 S                     0.020854
      7 C                    -0.302354
      8 H                     0.110667
      9 H                     0.118625
     10 H                     0.112470
     11 H                     0.204853
     12 C                     0.013451
     13 C                    -0.237358
     14 C                     0.017453
     15 H                     0.184818
     16 C                    -0.238438
     17 S                     0.019387
     18 C                    -0.270776
     19 H                     0.103005
     20 H                     0.108318
     21 H                     0.108055
     22 H                     0.198934
  ----------------------------------------
  Sum of atomic charges =     0.000000

                    Cartesian Multipole Moments
 -----------------------------------------------------------------
    Charge (ESU x 10^10)
                -0.0000
    Dipole Moment (Debye)
         X       1.3197      Y       0.2531      Z       0.2412
       Tot       1.3652
    Quadrupole Moments (Debye-Ang)
        XX     -89.7226     XY       0.4170     YY     -69.3243
        XZ      -3.1387     YZ       2.8159     ZZ     -82.6879

 Total job time:  60.90s(wall), 1797.09s(cpu)
        *  Thank you very much for using Q-Chem.  Have a nice day.  *
