 Q-Chem 5.4, Q-Chem, Inc., Pleasanton, CA (2021)
 Q-Chem 5.4.0 for Intel X86 EM64T Linux

User input:
--------------------------------------------------------------
$molecule
0 1
C	-0.466510	-3.887800	0.554267
C	0.424173	-3.701456	-0.507121
C	0.697244	-2.345170	-0.831575
H	0.877789	-4.545233	-1.048337
C	0.000000	-1.450135	0.000000
S	-0.982150	-2.321334	1.169911
C	1.627024	-1.934439	-1.939374
H	2.054010	-2.819799	-2.448894
H	2.475299	-1.326210	-1.561545
H	1.108051	-1.325374	-2.708773
H	-0.841863	-4.815326	1.000944
C	0.000000	0.000000	0.000000
C	0.419634	0.732990	1.113020
C	1.111057	1.939951	0.820578
H	0.226746	0.396221	2.142881
C	1.234565	2.155183	-0.563588
S	0.482106	0.842416	-1.464748
C	1.640257	2.863718	1.882380
H	1.417524	2.475067	2.894974
H	1.192042	3.876565	1.808137
H	2.740717	2.989259	1.808230
H	1.710720	2.986508	-1.097114
$end

$rem
JOBTYPE		SP
EXCHANGE	HF
CORRELATION	pRIMP2
BASIS		cc-pvtz
METHOD		rimp2
AUX_BASIS	rimp2-cc-pvtz
SOLVENT_METHOD	PCM
PURECART	11111
SYMMETRY	false
MEM_TOTAL	110000
SCF_CONVERGENCE = 6
THRESH=10
GUI = 2
$end

$solvent
dielectric 4.90
$end
--------------------------------------------------------------

             Standard Nuclear Orientation (Angstroms)
    I     Atom           X                Y                Z
 ----------------------------------------------------------------
    1      C      -0.4665100000    -3.8878000000     0.5542670000
    2      C       0.4241730000    -3.7014560000    -0.5071210000
    3      C       0.6972440000    -2.3451700000    -0.8315750000
    4      H       0.8777890000    -4.5452330000    -1.0483370000
    5      C       0.0000000000    -1.4501350000     0.0000000000
    6      S      -0.9821500000    -2.3213340000     1.1699110000
    7      C       1.6270240000    -1.9344390000    -1.9393740000
    8      H       2.0540100000    -2.8197990000    -2.4488940000
    9      H       2.4752990000    -1.3262100000    -1.5615450000
   10      H       1.1080510000    -1.3253740000    -2.7087730000
   11      H      -0.8418630000    -4.8153260000     1.0009440000
   12      C       0.0000000000     0.0000000000     0.0000000000
   13      C       0.4196340000     0.7329900000     1.1130200000
   14      C       1.1110570000     1.9399510000     0.8205780000
   15      H       0.2267460000     0.3962210000     2.1428810000
   16      C       1.2345650000     2.1551830000    -0.5635880000
   17      S       0.4821060000     0.8424160000    -1.4647480000
   18      C       1.6402570000     2.8637180000     1.8823800000
   19      H       1.4175240000     2.4750670000     2.8949740000
   20      H       1.1920420000     3.8765650000     1.8081370000
   21      H       2.7407170000     2.9892590000     1.8082300000
   22      H       1.7107200000     2.9865080000    -1.0971140000
 ----------------------------------------------------------------

   10   -1179.6633460042      5.76e-07  Convergence criterion met
 Total energy in the final basis set =    -1179.6633460042
        RIMP2         total energy =     -1181.6490503069 a.u.

                    Orbital Energies (a.u.)
 --------------------------------------------------------------

 Alpha MOs
 -- Occupied --
-91.9834 -91.9823 -11.2780 -11.2761 -11.2702 -11.2678 -11.2518 -11.2473
-11.2465 -11.2414 -11.2296 -11.2250  -8.9836  -8.9821  -6.6644  -6.6638
 -6.6633  -6.6631  -6.6625  -6.6619  -1.1813  -1.1485  -1.0418  -1.0212
 -0.9979  -0.9528  -0.9117  -0.8941  -0.7967  -0.7610  -0.7243  -0.6953
 -0.6592  -0.6167  -0.5826  -0.5791  -0.5761  -0.5694  -0.5505  -0.5324
 -0.5266  -0.5197  -0.5114  -0.4949  -0.4791  -0.4642  -0.4530  -0.3608
 -0.3408  -0.3352  -0.2745

          Ground-State Mulliken Net Atomic Charges

     Atom                 Charge (a.u.)
  ----------------------------------------
      1 C                    -0.218303
      2 C                    -0.253488
      3 C                     0.046318
      4 H                     0.185196
      5 C                    -0.031213
      6 S                     0.010645
      7 C                    -0.296129
      8 H                     0.107151
      9 H                     0.118963
     10 H                     0.111057
     11 H                     0.203479
     12 C                    -0.026616
     13 C                    -0.201965
     14 C                     0.009515
     15 H                     0.186158
     16 C                    -0.220976
     17 S                     0.021290
     18 C                    -0.268813
     19 H                     0.103106
     20 H                     0.108088
     21 H                     0.107169
     22 H                     0.199369
  ----------------------------------------
  Sum of atomic charges =     0.000000

                    Cartesian Multipole Moments
 -----------------------------------------------------------------
    Charge (ESU x 10^10)
                -0.0000
    Dipole Moment (Debye)
         X       2.1355      Y       0.6428      Z       0.2334
       Tot       2.2423
    Quadrupole Moments (Debye-Ang)
        XX     -87.2899     XY       3.4851     YY     -73.0675
        XZ      -2.7415     YZ       2.6155     ZZ     -82.5632

 Total job time:  48.03s(wall), 1719.43s(cpu)
        *  Thank you very much for using Q-Chem.  Have a nice day.  *
