 Q-Chem 5.4, Q-Chem, Inc., Pleasanton, CA (2021)
 Q-Chem 5.4.0 for Intel X86 EM64T Linux

User input:
--------------------------------------------------------------
$molecule
0 1
C	0.713264	-3.887800	0.126876
C	-0.651267	-3.701456	-0.113784
C	-1.068787	-2.345170	-0.188043
H	-1.346782	-4.545233	-0.236019
C	-0.000000	-1.450135	-0.000000
S	1.504247	-2.321334	0.265612
C	-2.493059	-1.934439	-0.439357
H	-3.147809	-2.819799	-0.554378
H	-2.589987	-1.326210	-1.362899
H	-2.899892	-1.325374	0.394786
H	1.287774	-4.815326	0.228603
C	0.000000	0.000000	0.000000
C	0.070542	0.841660	1.113020
C	0.187101	2.227746	0.820578
H	0.038051	0.454925	2.142881
C	0.208076	2.475009	-0.563588
S	0.080917	0.967235	-1.464748
C	0.276318	3.288613	1.882380
H	0.238704	2.842244	2.894974
H	-0.557951	4.017140	1.808137
H	1.220618	3.867466	1.808230
H	0.288286	3.429678	-1.097114
$end

$rem
JOBTYPE		SP
EXCHANGE	HF
CORRELATION	pRIMP2
BASIS		cc-pvtz
METHOD		rimp2
AUX_BASIS	rimp2-cc-pvtz
SOLVENT_METHOD	PCM
PURECART	11111
SYMMETRY	false
MEM_TOTAL	110000
SCF_CONVERGENCE = 6
THRESH=10
GUI = 2
$end

$solvent
dielectric 4.90
$end
--------------------------------------------------------------

             Standard Nuclear Orientation (Angstroms)
    I     Atom           X                Y                Z
 ----------------------------------------------------------------
    1      C       0.7132640000    -3.8878000000     0.1268760000
    2      C      -0.6512670000    -3.7014560000    -0.1137840000
    3      C      -1.0687870000    -2.3451700000    -0.1880430000
    4      H      -1.3467820000    -4.5452330000    -0.2360190000
    5      C       0.0000000000    -1.4501350000     0.0000000000
    6      S       1.5042470000    -2.3213340000     0.2656120000
    7      C      -2.4930590000    -1.9344390000    -0.4393570000
    8      H      -3.1478090000    -2.8197990000    -0.5543780000
    9      H      -2.5899870000    -1.3262100000    -1.3628990000
   10      H      -2.8998920000    -1.3253740000     0.3947860000
   11      H       1.2877740000    -4.8153260000     0.2286030000
   12      C       0.0000000000     0.0000000000     0.0000000000
   13      C       0.0705420000     0.8416600000     1.1130200000
   14      C       0.1871010000     2.2277460000     0.8205780000
   15      H       0.0380510000     0.4549250000     2.1428810000
   16      C       0.2080760000     2.4750090000    -0.5635880000
   17      S       0.0809170000     0.9672350000    -1.4647480000
   18      C       0.2763180000     3.2886130000     1.8823800000
   19      H       0.2387040000     2.8422440000     2.8949740000
   20      H      -0.5579510000     4.0171400000     1.8081370000
   21      H       1.2206180000     3.8674660000     1.8082300000
   22      H       0.2882860000     3.4296780000    -1.0971140000
 ----------------------------------------------------------------

   10   -1179.6857514739      5.06e-07  Convergence criterion met
 Total energy in the final basis set =    -1179.6857514739
        RIMP2         total energy =     -1181.6632003076 a.u.

                    Orbital Energies (a.u.)
 --------------------------------------------------------------

 Alpha MOs
 -- Occupied --
-91.9855 -91.9854 -11.2790 -11.2732 -11.2729 -11.2651 -11.2535 -11.2509
-11.2421 -11.2417 -11.2291 -11.2290  -8.9850  -8.9849  -6.6659  -6.6657
 -6.6654  -6.6652  -6.6647  -6.6646  -1.1778  -1.1496  -1.0391  -1.0227
 -0.9970  -0.9536  -0.9134  -0.8924  -0.7998  -0.7548  -0.7287  -0.6943
 -0.6622  -0.6166  -0.5824  -0.5789  -0.5712  -0.5692  -0.5515  -0.5314
 -0.5283  -0.5193  -0.5071  -0.4928  -0.4888  -0.4648  -0.4624  -0.3458
 -0.3387  -0.3210  -0.3044

          Ground-State Mulliken Net Atomic Charges

     Atom                 Charge (a.u.)
  ----------------------------------------
      1 C                    -0.210447
      2 C                    -0.249863
      3 C                     0.045363
      4 H                     0.185125
      5 C                    -0.049939
      6 S                     0.025802
      7 C                    -0.282392
      8 H                     0.107075
      9 H                     0.109867
     10 H                     0.110343
     11 H                     0.204187
     12 C                    -0.003707
     13 C                    -0.230668
     14 C                     0.019225
     15 H                     0.185923
     16 C                    -0.237945
     17 S                     0.025780
     18 C                    -0.271076
     19 H                     0.102887
     20 H                     0.107818
     21 H                     0.108337
     22 H                     0.198306
  ----------------------------------------
  Sum of atomic charges =     0.000000

                    Cartesian Multipole Moments
 -----------------------------------------------------------------
    Charge (ESU x 10^10)
                -0.0000
    Dipole Moment (Debye)
         X      -1.3289      Y       0.2344      Z       1.2028
       Tot       1.8076
    Quadrupole Moments (Debye-Ang)
        XX     -86.2386     XY       3.1171     YY     -68.7987
        XZ       1.2599     YZ       1.5269     ZZ     -86.5426

 Total job time:  55.22s(wall), 1792.68s(cpu)
        *  Thank you very much for using Q-Chem.  Have a nice day.  *
