 Q-Chem 5.4, Q-Chem, Inc., Pleasanton, CA (2021)
 Q-Chem 5.4.0 for Intel X86 EM64T Linux

User input:
--------------------------------------------------------------
$molecule
0 1
C	0.627947	-3.887800	-0.361285
C	-0.572038	-3.701456	0.331462
C	-0.939610	-2.345170	0.542953
H	-1.183405	-4.545233	0.684893
C	-0.000000	-1.450135	-0.000000
S	1.323052	-2.321334	-0.763441
C	-2.192207	-1.934439	1.265941
H	-2.767709	-2.819799	1.598695
H	-2.860100	-1.326210	0.620770
H	-1.967682	-1.325374	2.166438
H	1.133436	-4.815326	-0.652645
C	0.000000	0.000000	0.000000
C	0.215623	0.816623	1.113020
C	0.571102	2.161411	0.820578
H	0.116470	0.441406	2.142881
C	0.634696	2.401276	-0.563588
S	0.247646	0.938489	-1.464748
C	0.843182	3.190669	1.882380
H	0.728628	2.757614	2.894974
H	0.148095	4.052998	1.808137
H	1.873652	3.596752	1.808230
H	0.879464	3.327513	-1.097114
$end

$rem
JOBTYPE		SP
EXCHANGE	HF
CORRELATION	pRIMP2
BASIS		cc-pvtz
METHOD		rimp2
AUX_BASIS	rimp2-cc-pvtz
SOLVENT_METHOD	PCM
PURECART	11111
SYMMETRY	false
MEM_TOTAL	110000
SCF_CONVERGENCE = 6
THRESH=10
GUI = 2
$end

$solvent
dielectric 4.90
$end
--------------------------------------------------------------

             Standard Nuclear Orientation (Angstroms)
    I     Atom           X                Y                Z
 ----------------------------------------------------------------
    1      C       0.6279470000    -3.8878000000    -0.3612850000
    2      C      -0.5720380000    -3.7014560000     0.3314620000
    3      C      -0.9396100000    -2.3451700000     0.5429530000
    4      H      -1.1834050000    -4.5452330000     0.6848930000
    5      C       0.0000000000    -1.4501350000     0.0000000000
    6      S       1.3230520000    -2.3213340000    -0.7634410000
    7      C      -2.1922070000    -1.9344390000     1.2659410000
    8      H      -2.7677090000    -2.8197990000     1.5986950000
    9      H      -2.8601000000    -1.3262100000     0.6207700000
   10      H      -1.9676820000    -1.3253740000     2.1664380000
   11      H       1.1334360000    -4.8153260000    -0.6526450000
   12      C       0.0000000000     0.0000000000     0.0000000000
   13      C       0.2156230000     0.8166230000     1.1130200000
   14      C       0.5711020000     2.1614110000     0.8205780000
   15      H       0.1164700000     0.4414060000     2.1428810000
   16      C       0.6346960000     2.4012760000    -0.5635880000
   17      S       0.2476460000     0.9384890000    -1.4647480000
   18      C       0.8431820000     3.1906690000     1.8823800000
   19      H       0.7286280000     2.7576140000     2.8949740000
   20      H       0.1480950000     4.0529980000     1.8081370000
   21      H       1.8736520000     3.5967520000     1.8082300000
   22      H       0.8794640000     3.3275130000    -1.0971140000
 ----------------------------------------------------------------

   10   -1179.6824348034      5.06e-07  Convergence criterion met
 Total energy in the final basis set =    -1179.6824348034
        RIMP2         total energy =     -1181.6611759737 a.u.

                    Orbital Energies (a.u.)
 --------------------------------------------------------------

 Alpha MOs
 -- Occupied --
-91.9862 -91.9853 -11.2793 -11.2750 -11.2715 -11.2661 -11.2517 -11.2515
-11.2426 -11.2421 -11.2294 -11.2291  -8.9857  -8.9849  -6.6666  -6.6660
 -6.6658  -6.6654  -6.6652  -6.6646  -1.1789  -1.1496  -1.0400  -1.0233
 -0.9962  -0.9550  -0.9124  -0.8931  -0.8007  -0.7520  -0.7312  -0.6956
 -0.6615  -0.6162  -0.5843  -0.5797  -0.5698  -0.5669  -0.5516  -0.5330
 -0.5297  -0.5198  -0.5071  -0.4916  -0.4867  -0.4690  -0.4600  -0.3513
 -0.3397  -0.3333  -0.2882

          Ground-State Mulliken Net Atomic Charges

     Atom                 Charge (a.u.)
  ----------------------------------------
      1 C                    -0.211224
      2 C                    -0.250902
      3 C                     0.046729
      4 H                     0.184726
      5 C                    -0.047433
      6 S                     0.023738
      7 C                    -0.284504
      8 H                     0.107963
      9 H                     0.111283
     10 H                     0.107748
     11 H                     0.204244
     12 C                    -0.010277
     13 C                    -0.218446
     14 C                     0.015329
     15 H                     0.189474
     16 C                    -0.232642
     17 S                     0.018408
     18 C                    -0.271615
     19 H                     0.102477
     20 H                     0.108006
     21 H                     0.108464
     22 H                     0.198454
  ----------------------------------------
  Sum of atomic charges =     0.000000

                    Cartesian Multipole Moments
 -----------------------------------------------------------------
    Charge (ESU x 10^10)
                -0.0000
    Dipole Moment (Debye)
         X      -0.7830      Y       0.3503      Z       2.2403
       Tot       2.3989
    Quadrupole Moments (Debye-Ang)
        XX     -87.1255     XY       4.6168     YY     -69.6742
        XZ      -2.5216     YZ      -0.0545     ZZ     -85.0345

 Total job time:  59.21s(wall), 1831.60s(cpu)
        *  Thank you very much for using Q-Chem.  Have a nice day.  *
