 Q-Chem 5.4, Q-Chem, Inc., Pleasanton, CA (2021)
 Q-Chem 5.4.0 for Intel X86 EM64T Linux

User input:
--------------------------------------------------------------
$molecule
0 1
C	-0.464838	-3.887800	-0.555670
C	0.425760	-3.701456	0.505790
C	0.697866	-2.345170	0.831053
H	0.879984	-4.545233	1.046496
C	-0.000000	-1.450135	-0.000000
S	-0.981588	-2.321334	-1.170382
C	1.627381	-1.934439	1.939074
H	2.055015	-2.819799	2.448051
H	1.107991	-1.326210	2.708853
H	2.475210	-1.325374	1.561590
H	-0.839549	-4.815326	-1.002886
C	0.000000	0.000000	0.000000
C	0.540541	0.648986	1.113020
C	1.431046	1.717546	0.820578
H	0.292104	0.350827	2.142881
C	1.590053	1.908061	-0.563588
S	0.621066	0.745901	-1.464748
C	2.112618	2.535384	1.882380
H	1.825779	2.191315	2.894974
H	1.847090	3.610676	1.808137
H	3.218159	2.467925	1.808230
H	2.203332	2.644073	-1.097114
$end

$rem
JOBTYPE		SP
EXCHANGE	HF
CORRELATION	pRIMP2
BASIS		cc-pvtz
METHOD		rimp2
AUX_BASIS	rimp2-cc-pvtz
SOLVENT_METHOD	PCM
PURECART	11111
SYMMETRY	false
MEM_TOTAL	110000
SCF_CONVERGENCE = 6
THRESH=10
GUI = 2
$end

$solvent
dielectric 4.90
$end
--------------------------------------------------------------

             Standard Nuclear Orientation (Angstroms)
    I     Atom           X                Y                Z
 ----------------------------------------------------------------
    1      C      -0.4648380000    -3.8878000000    -0.5556700000
    2      C       0.4257600000    -3.7014560000     0.5057900000
    3      C       0.6978660000    -2.3451700000     0.8310530000
    4      H       0.8799840000    -4.5452330000     1.0464960000
    5      C       0.0000000000    -1.4501350000     0.0000000000
    6      S      -0.9815880000    -2.3213340000    -1.1703820000
    7      C       1.6273810000    -1.9344390000     1.9390740000
    8      H       2.0550150000    -2.8197990000     2.4480510000
    9      H       1.1079910000    -1.3262100000     2.7088530000
   10      H       2.4752100000    -1.3253740000     1.5615900000
   11      H      -0.8395490000    -4.8153260000    -1.0028860000
   12      C       0.0000000000     0.0000000000     0.0000000000
   13      C       0.5405410000     0.6489860000     1.1130200000
   14      C       1.4310460000     1.7175460000     0.8205780000
   15      H       0.2921040000     0.3508270000     2.1428810000
   16      C       1.5900530000     1.9080610000    -0.5635880000
   17      S       0.6210660000     0.7459010000    -1.4647480000
   18      C       2.1126180000     2.5353840000     1.8823800000
   19      H       1.8257790000     2.1913150000     2.8949740000
   20      H       1.8470900000     3.6106760000     1.8081370000
   21      H       3.2181590000     2.4679250000     1.8082300000
   22      H       2.2033320000     2.6440730000    -1.0971140000
 ----------------------------------------------------------------

   10   -1179.6532928787      7.27e-07  Convergence criterion met
 Total energy in the final basis set =    -1179.6532928787
        RIMP2         total energy =     -1181.6413866759 a.u.

                    Orbital Energies (a.u.)
 --------------------------------------------------------------

 Alpha MOs
 -- Occupied --
-91.9835 -91.9794 -11.2763 -11.2757 -11.2689 -11.2681 -11.2530 -11.2495
-11.2480 -11.2410 -11.2308 -11.2278  -8.9836  -8.9795  -6.6644  -6.6638
 -6.6633  -6.6605  -6.6599  -6.6593  -1.1831  -1.1483  -1.0423  -1.0238
 -0.9959  -0.9538  -0.9136  -0.8931  -0.7974  -0.7535  -0.7322  -0.7002
 -0.6575  -0.6167  -0.5916  -0.5817  -0.5707  -0.5613  -0.5493  -0.5387
 -0.5271  -0.5234  -0.5072  -0.4905  -0.4762  -0.4670  -0.4553  -0.3537
 -0.3427  -0.3391  -0.2758

          Ground-State Mulliken Net Atomic Charges

     Atom                 Charge (a.u.)
  ----------------------------------------
      1 C                    -0.214169
      2 C                    -0.255922
      3 C                     0.052093
      4 H                     0.184654
      5 C                    -0.013462
      6 S                     0.005164
      7 C                    -0.300934
      8 H                     0.115038
      9 H                     0.103510
     10 H                     0.117464
     11 H                     0.203581
     12 C                    -0.050384
     13 C                    -0.244678
     14 C                     0.038703
     15 H                     0.193378
     16 C                    -0.220620
     17 S                     0.033716
     18 C                    -0.269990
     19 H                     0.103078
     20 H                     0.111453
     21 H                     0.107746
     22 H                     0.200581
  ----------------------------------------
  Sum of atomic charges =     0.000000

                    Cartesian Multipole Moments
 -----------------------------------------------------------------
    Charge (ESU x 10^10)
                -0.0000
    Dipole Moment (Debye)
         X       2.6090      Y       0.6292      Z       2.8295
       Tot       3.8998
    Quadrupole Moments (Debye-Ang)
        XX     -85.2253     XY       4.3269     YY     -74.3265
        XZ       3.7373     YZ      -0.9704     ZZ     -82.8321

 Total job time:  54.95s(wall), 1913.21s(cpu)
        *  Thank you very much for using Q-Chem.  Have a nice day.  *
