 Q-Chem 5.4, Q-Chem, Inc., Pleasanton, CA (2021)
 Q-Chem 5.4.0 for Intel X86 EM64T Linux

User input:
--------------------------------------------------------------
$molecule
0 1
C	-0.681143	-3.887800	0.246754
C	0.620906	-3.701456	-0.227093
C	1.019618	-2.345170	-0.371543
H	1.284357	-4.545233	-0.468992
C	-0.000000	-1.450135	-0.000000
S	-1.435522	-2.321334	0.522097
C	2.378731	-1.934439	-0.866035
H	3.003272	-2.819799	-1.093799
H	2.924444	-1.326210	-0.114688
H	2.313987	-1.325374	-1.791841
H	-1.229547	-4.815326	0.445911
C	0.000000	0.000000	0.000000
C	0.540541	0.648986	1.113020
C	1.431046	1.717546	0.820578
H	0.292104	0.350827	2.142881
C	1.590053	1.908061	-0.563588
S	0.621066	0.745901	-1.464748
C	2.112618	2.535384	1.882380
H	1.825779	2.191315	2.894974
H	1.847090	3.610676	1.808137
H	3.218159	2.467925	1.808230
H	2.203332	2.644073	-1.097114
$end

$rem
JOBTYPE		SP
EXCHANGE	HF
CORRELATION	pRIMP2
BASIS		cc-pvtz
METHOD		rimp2
AUX_BASIS	rimp2-cc-pvtz
SOLVENT_METHOD	PCM
PURECART	11111
SYMMETRY	false
MEM_TOTAL	110000
SCF_CONVERGENCE = 6
THRESH=10
GUI = 2
$end

$solvent
dielectric 4.90
$end
--------------------------------------------------------------

             Standard Nuclear Orientation (Angstroms)
    I     Atom           X                Y                Z
 ----------------------------------------------------------------
    1      C      -0.6811430000    -3.8878000000     0.2467540000
    2      C       0.6209060000    -3.7014560000    -0.2270930000
    3      C       1.0196180000    -2.3451700000    -0.3715430000
    4      H       1.2843570000    -4.5452330000    -0.4689920000
    5      C       0.0000000000    -1.4501350000     0.0000000000
    6      S      -1.4355220000    -2.3213340000     0.5220970000
    7      C       2.3787310000    -1.9344390000    -0.8660350000
    8      H       3.0032720000    -2.8197990000    -1.0937990000
    9      H       2.9244440000    -1.3262100000    -0.1146880000
   10      H       2.3139870000    -1.3253740000    -1.7918410000
   11      H      -1.2295470000    -4.8153260000     0.4459110000
   12      C       0.0000000000     0.0000000000     0.0000000000
   13      C       0.5405410000     0.6489860000     1.1130200000
   14      C       1.4310460000     1.7175460000     0.8205780000
   15      H       0.2921040000     0.3508270000     2.1428810000
   16      C       1.5900530000     1.9080610000    -0.5635880000
   17      S       0.6210660000     0.7459010000    -1.4647480000
   18      C       2.1126180000     2.5353840000     1.8823800000
   19      H       1.8257790000     2.1913150000     2.8949740000
   20      H       1.8470900000     3.6106760000     1.8081370000
   21      H       3.2181590000     2.4679250000     1.8082300000
   22      H       2.2033320000     2.6440730000    -1.0971140000
 ----------------------------------------------------------------

   10   -1179.6532753125      7.22e-07  Convergence criterion met
 Total energy in the final basis set =    -1179.6532753125
        RIMP2         total energy =     -1181.6415758834 a.u.

                    Orbital Energies (a.u.)
 --------------------------------------------------------------

 Alpha MOs
 -- Occupied --
-91.9839 -91.9797 -11.2763 -11.2750 -11.2678 -11.2658 -11.2533 -11.2523
-11.2459 -11.2398 -11.2305 -11.2241  -8.9839  -8.9795  -6.6647  -6.6641
 -6.6636  -6.6604  -6.6598  -6.6593  -1.1821  -1.1477  -1.0421  -1.0182
 -0.9984  -0.9533  -0.9118  -0.8916  -0.7958  -0.7551  -0.7314  -0.6948
 -0.6578  -0.6180  -0.5815  -0.5809  -0.5732  -0.5688  -0.5495  -0.5327
 -0.5264  -0.5207  -0.5118  -0.4911  -0.4726  -0.4647  -0.4547  -0.3502
 -0.3392  -0.3248  -0.2908

          Ground-State Mulliken Net Atomic Charges

     Atom                 Charge (a.u.)
  ----------------------------------------
      1 C                    -0.219021
      2 C                    -0.255264
      3 C                     0.053471
      4 H                     0.184339
      5 C                    -0.016375
      6 S                     0.009833
      7 C                    -0.299399
      8 H                     0.111334
      9 H                     0.112334
     10 H                     0.116255
     11 H                     0.201450
     12 C                    -0.085709
     13 C                    -0.178607
     14 C                     0.007965
     15 H                     0.186480
     16 C                    -0.207239
     17 S                     0.028121
     18 C                    -0.267955
     19 H                     0.103356
     20 H                     0.108211
     21 H                     0.106670
     22 H                     0.199750
  ----------------------------------------
  Sum of atomic charges =     0.000000

                    Cartesian Multipole Moments
 -----------------------------------------------------------------
    Charge (ESU x 10^10)
                -0.0000
    Dipole Moment (Debye)
         X       3.0823      Y       0.8272      Z       1.0110
       Tot       3.3477
    Quadrupole Moments (Debye-Ang)
        XX     -82.5992     XY       3.6872     YY     -75.1879
        XZ      -1.4867     YZ       1.7085     ZZ     -85.4560

 Total job time:  54.09s(wall), 1931.63s(cpu)
        *  Thank you very much for using Q-Chem.  Have a nice day.  *
