 Q-Chem 5.4, Q-Chem, Inc., Pleasanton, CA (2021)
 Q-Chem 5.4.0 for Intel X86 EM64T Linux

User input:
--------------------------------------------------------------
$molecule
0 1
C	-0.713264	-3.887800	-0.126876
C	0.651267	-3.701456	0.113784
C	1.068787	-2.345170	0.188043
H	1.346782	-4.545233	0.236019
C	0.000000	-1.450135	0.000000
S	-1.504247	-2.321334	-0.265612
C	2.493059	-1.934439	0.439357
H	3.147809	-2.819799	0.554378
H	2.589987	-1.326210	1.362899
H	2.899892	-1.325374	-0.394786
H	-1.287774	-4.815326	-0.228603
C	0.000000	0.000000	0.000000
C	0.419634	0.732990	1.113020
C	1.111057	1.939951	0.820578
H	0.226746	0.396221	2.142881
C	1.234565	2.155183	-0.563588
S	0.482106	0.842416	-1.464748
C	1.640257	2.863718	1.882380
H	1.417524	2.475067	2.894974
H	1.192042	3.876565	1.808137
H	2.740717	2.989259	1.808230
H	1.710720	2.986508	-1.097114
$end

$rem
JOBTYPE		SP
EXCHANGE	HF
CORRELATION	pRIMP2
BASIS		cc-pvtz
METHOD		rimp2
AUX_BASIS	rimp2-cc-pvtz
SOLVENT_METHOD	PCM
PURECART	11111
SYMMETRY	false
MEM_TOTAL	110000
SCF_CONVERGENCE = 6
THRESH=10
GUI = 2
$end

$solvent
dielectric 4.90
$end
--------------------------------------------------------------

             Standard Nuclear Orientation (Angstroms)
    I     Atom           X                Y                Z
 ----------------------------------------------------------------
    1      C      -0.7132640000    -3.8878000000    -0.1268760000
    2      C       0.6512670000    -3.7014560000     0.1137840000
    3      C       1.0687870000    -2.3451700000     0.1880430000
    4      H       1.3467820000    -4.5452330000     0.2360190000
    5      C       0.0000000000    -1.4501350000     0.0000000000
    6      S      -1.5042470000    -2.3213340000    -0.2656120000
    7      C       2.4930590000    -1.9344390000     0.4393570000
    8      H       3.1478090000    -2.8197990000     0.5543780000
    9      H       2.5899870000    -1.3262100000     1.3628990000
   10      H       2.8998920000    -1.3253740000    -0.3947860000
   11      H      -1.2877740000    -4.8153260000    -0.2286030000
   12      C       0.0000000000     0.0000000000     0.0000000000
   13      C       0.4196340000     0.7329900000     1.1130200000
   14      C       1.1110570000     1.9399510000     0.8205780000
   15      H       0.2267460000     0.3962210000     2.1428810000
   16      C       1.2345650000     2.1551830000    -0.5635880000
   17      S       0.4821060000     0.8424160000    -1.4647480000
   18      C       1.6402570000     2.8637180000     1.8823800000
   19      H       1.4175240000     2.4750670000     2.8949740000
   20      H       1.1920420000     3.8765650000     1.8081370000
   21      H       2.7407170000     2.9892590000     1.8082300000
   22      H       1.7107200000     2.9865080000    -1.0971140000
 ----------------------------------------------------------------

   10   -1179.6698262367      6.09e-07  Convergence criterion met
 Total energy in the final basis set =    -1179.6698262367
        RIMP2         total energy =     -1181.6530171476 a.u.

                    Orbital Energies (a.u.)
 --------------------------------------------------------------

 Alpha MOs
 -- Occupied --
-91.9848 -91.9815 -11.2732 -11.2715 -11.2714 -11.2700 -11.2517 -11.2512
-11.2470 -11.2410 -11.2299 -11.2279  -8.9844  -8.9813  -6.6653  -6.6647
 -6.6642  -6.6621  -6.6616  -6.6610  -1.1794  -1.1487  -1.0403  -1.0209
 -0.9969  -0.9539  -0.9127  -0.8918  -0.7976  -0.7517  -0.7331  -0.6955
 -0.6599  -0.6171  -0.5822  -0.5801  -0.5718  -0.5681  -0.5505  -0.5315
 -0.5278  -0.5208  -0.5104  -0.4909  -0.4796  -0.4638  -0.4599  -0.3442
 -0.3404  -0.3195  -0.3030

          Ground-State Mulliken Net Atomic Charges

     Atom                 Charge (a.u.)
  ----------------------------------------
      1 C                    -0.213247
      2 C                    -0.253203
      3 C                     0.073296
      4 H                     0.184604
      5 C                    -0.037662
      6 S                     0.020655
      7 C                    -0.286499
      8 H                     0.111236
      9 H                     0.109605
     10 H                     0.113356
     11 H                     0.202745
     12 C                    -0.053038
     13 C                    -0.249535
     14 C                     0.042656
     15 H                     0.188480
     16 C                    -0.232213
     17 S                     0.029303
     18 C                    -0.269035
     19 H                     0.103104
     20 H                     0.108661
     21 H                     0.107209
     22 H                     0.199520
  ----------------------------------------
  Sum of atomic charges =     0.000000

                    Cartesian Multipole Moments
 -----------------------------------------------------------------
    Charge (ESU x 10^10)
                -0.0000
    Dipole Moment (Debye)
         X       2.6430      Y       0.4989      Z       1.8133
       Tot       3.2438
    Quadrupole Moments (Debye-Ang)
        XX     -83.7830     XY       2.5673     YY     -72.0655
        XZ       1.6192     YZ       0.5394     ZZ     -86.3780

 Total job time:  50.02s(wall), 1794.09s(cpu)
        *  Thank you very much for using Q-Chem.  Have a nice day.  *
