 Q-Chem 5.4, Q-Chem, Inc., Pleasanton, CA (2021)
 Q-Chem 5.4.0 for Intel X86 EM64T Linux

User input:
--------------------------------------------------------------
$molecule
0 1
C	-0.464838	-3.887800	-0.555670
C	0.425760	-3.701456	0.505790
C	0.697866	-2.345170	0.831053
H	0.879984	-4.545233	1.046496
C	0.000000	-1.450135	0.000000
S	-0.981588	-2.321334	-1.170382
C	1.627381	-1.934439	1.939074
H	2.055015	-2.819799	2.448051
H	1.107991	-1.326210	2.708853
H	2.475210	-1.325374	1.561590
H	-0.839549	-4.815326	-1.002886
C	0.000000	0.000000	0.000000
C	0.419634	0.732990	1.113020
C	1.111057	1.939951	0.820578
H	0.226746	0.396221	2.142881
C	1.234565	2.155183	-0.563588
S	0.482106	0.842416	-1.464748
C	1.640257	2.863718	1.882380
H	1.417524	2.475067	2.894974
H	1.192042	3.876565	1.808137
H	2.740717	2.989259	1.808230
H	1.710720	2.986508	-1.097114
$end

$rem
JOBTYPE		SP
EXCHANGE	HF
CORRELATION	pRIMP2
BASIS		cc-pvtz
METHOD		rimp2
AUX_BASIS	rimp2-cc-pvtz
SOLVENT_METHOD	PCM
PURECART	11111
SYMMETRY	false
MEM_TOTAL	110000
SCF_CONVERGENCE = 6
THRESH=10
GUI = 2
$end

$solvent
dielectric 4.90
$end
--------------------------------------------------------------

             Standard Nuclear Orientation (Angstroms)
    I     Atom           X                Y                Z
 ----------------------------------------------------------------
    1      C      -0.4648380000    -3.8878000000    -0.5556700000
    2      C       0.4257600000    -3.7014560000     0.5057900000
    3      C       0.6978660000    -2.3451700000     0.8310530000
    4      H       0.8799840000    -4.5452330000     1.0464960000
    5      C       0.0000000000    -1.4501350000     0.0000000000
    6      S      -0.9815880000    -2.3213340000    -1.1703820000
    7      C       1.6273810000    -1.9344390000     1.9390740000
    8      H       2.0550150000    -2.8197990000     2.4480510000
    9      H       1.1079910000    -1.3262100000     2.7088530000
   10      H       2.4752100000    -1.3253740000     1.5615900000
   11      H      -0.8395490000    -4.8153260000    -1.0028860000
   12      C       0.0000000000     0.0000000000     0.0000000000
   13      C       0.4196340000     0.7329900000     1.1130200000
   14      C       1.1110570000     1.9399510000     0.8205780000
   15      H       0.2267460000     0.3962210000     2.1428810000
   16      C       1.2345650000     2.1551830000    -0.5635880000
   17      S       0.4821060000     0.8424160000    -1.4647480000
   18      C       1.6402570000     2.8637180000     1.8823800000
   19      H       1.4175240000     2.4750670000     2.8949740000
   20      H       1.1920420000     3.8765650000     1.8081370000
   21      H       2.7407170000     2.9892590000     1.8082300000
   22      H       1.7107200000     2.9865080000    -1.0971140000
 ----------------------------------------------------------------

   10   -1179.6681279700      5.68e-07  Convergence criterion met
 Total energy in the final basis set =    -1179.6681279700
        RIMP2         total energy =     -1181.6523373387 a.u.

                    Orbital Energies (a.u.)
 --------------------------------------------------------------

 Alpha MOs
 -- Occupied --
-91.9845 -91.9820 -11.2765 -11.2745 -11.2705 -11.2705 -11.2524 -11.2510
-11.2450 -11.2422 -11.2302 -11.2286  -8.9843  -8.9819  -6.6652  -6.6646
 -6.6640  -6.6629  -6.6623  -6.6617  -1.1811  -1.1492  -1.0412  -1.0243
 -0.9958  -0.9545  -0.9135  -0.8934  -0.7988  -0.7538  -0.7307  -0.6995
 -0.6594  -0.6160  -0.5896  -0.5810  -0.5709  -0.5622  -0.5500  -0.5378
 -0.5280  -0.5226  -0.5068  -0.4916  -0.4802  -0.4688  -0.4563  -0.3542
 -0.3429  -0.3400  -0.2771

          Ground-State Mulliken Net Atomic Charges

     Atom                 Charge (a.u.)
  ----------------------------------------
      1 C                    -0.211899
      2 C                    -0.252362
      3 C                     0.058455
      4 H                     0.185113
      5 C                    -0.027185
      6 S                     0.011834
      7 C                    -0.298150
      8 H                     0.114880
      9 H                     0.104431
     10 H                     0.117733
     11 H                     0.204545
     12 C                    -0.015158
     13 C                    -0.278293
     14 C                     0.050936
     15 H                     0.192432
     16 C                    -0.237399
     17 S                     0.029765
     18 C                    -0.269129
     19 H                     0.102468
     20 H                     0.109428
     21 H                     0.108123
     22 H                     0.199434
  ----------------------------------------
  Sum of atomic charges =     0.000000

                    Cartesian Multipole Moments
 -----------------------------------------------------------------
    Charge (ESU x 10^10)
                -0.0000
    Dipole Moment (Debye)
         X       2.0987      Y       0.4350      Z       2.7544
       Tot       3.4901
    Quadrupole Moments (Debye-Ang)
        XX     -87.2231     XY       3.4665     YY     -71.8631
        XZ       3.7141     YZ      -0.8020     ZZ     -82.8849

 Total job time:  54.85s(wall), 1753.27s(cpu)
        *  Thank you very much for using Q-Chem.  Have a nice day.  *
