 Q-Chem 5.4, Q-Chem, Inc., Pleasanton, CA (2021)
 Q-Chem 5.4.0 for Intel X86 EM64T Linux

User input:
--------------------------------------------------------------
$molecule
0 1
C	-0.363176	-3.887800	0.626855
C	0.329669	-3.701456	-0.573074
C	0.542250	-2.345170	-0.940016
H	0.682412	-4.545233	-1.184837
C	0.000000	-1.450135	0.000000
S	-0.764076	-2.321334	1.322686
C	1.265537	-1.934439	-2.192440
H	1.597559	-2.819799	-2.768365
H	2.166534	-1.326210	-1.967653
H	0.620843	-1.325374	-2.860032
H	-0.655262	-4.815326	1.131925
C	0.000000	0.000000	0.000000
C	0.285976	0.794723	1.113020
C	0.757308	2.103412	0.820578
H	0.154498	0.429575	2.142881
C	0.841565	2.336821	-0.563588
S	0.328498	0.913334	-1.464748
C	1.118059	3.105040	1.882380
H	0.966197	2.683616	2.894974
H	0.500773	4.024668	1.808137
H	2.180000	3.419766	1.808230
H	1.166129	3.238200	-1.097114
$end

$rem
JOBTYPE		SP
EXCHANGE	HF
CORRELATION	pRIMP2
BASIS		cc-pvtz
METHOD		rimp2
AUX_BASIS	rimp2-cc-pvtz
SOLVENT_METHOD	PCM
PURECART	11111
SYMMETRY	false
MEM_TOTAL	110000
SCF_CONVERGENCE = 6
THRESH=10
GUI = 2
$end

$solvent
dielectric 4.90
$end
--------------------------------------------------------------

             Standard Nuclear Orientation (Angstroms)
    I     Atom           X                Y                Z
 ----------------------------------------------------------------
    1      C      -0.3631760000    -3.8878000000     0.6268550000
    2      C       0.3296690000    -3.7014560000    -0.5730740000
    3      C       0.5422500000    -2.3451700000    -0.9400160000
    4      H       0.6824120000    -4.5452330000    -1.1848370000
    5      C       0.0000000000    -1.4501350000     0.0000000000
    6      S      -0.7640760000    -2.3213340000     1.3226860000
    7      C       1.2655370000    -1.9344390000    -2.1924400000
    8      H       1.5975590000    -2.8197990000    -2.7683650000
    9      H       2.1665340000    -1.3262100000    -1.9676530000
   10      H       0.6208430000    -1.3253740000    -2.8600320000
   11      H      -0.6552620000    -4.8153260000     1.1319250000
   12      C       0.0000000000     0.0000000000     0.0000000000
   13      C       0.2859760000     0.7947230000     1.1130200000
   14      C       0.7573080000     2.1034120000     0.8205780000
   15      H       0.1544980000     0.4295750000     2.1428810000
   16      C       0.8415650000     2.3368210000    -0.5635880000
   17      S       0.3284980000     0.9133340000    -1.4647480000
   18      C       1.1180590000     3.1050400000     1.8823800000
   19      H       0.9661970000     2.6836160000     2.8949740000
   20      H       0.5007730000     4.0246680000     1.8081370000
   21      H       2.1800000000     3.4197660000     1.8082300000
   22      H       1.1661290000     3.2382000000    -1.0971140000
 ----------------------------------------------------------------

   10   -1179.6758327768      5.05e-07  Convergence criterion met
 Total energy in the final basis set =    -1179.6758327768
        RIMP2         total energy =     -1181.6584061769 a.u.

                    Orbital Energies (a.u.)
 --------------------------------------------------------------

 Alpha MOs
 -- Occupied --
-91.9844 -91.9843 -11.2809 -11.2784 -11.2706 -11.2657 -11.2517 -11.2505
-11.2427 -11.2424 -11.2292 -11.2275  -8.9843  -8.9841  -6.6651  -6.6651
 -6.6646  -6.6645  -6.6640  -6.6639  -1.1807  -1.1494  -1.0414  -1.0232
 -0.9980  -0.9528  -0.9130  -0.8948  -0.7981  -0.7628  -0.7219  -0.6956
 -0.6612  -0.6163  -0.5832  -0.5788  -0.5775  -0.5696  -0.5515  -0.5326
 -0.5257  -0.5197  -0.5111  -0.4961  -0.4849  -0.4663  -0.4526  -0.3646
 -0.3423  -0.3378  -0.2723

          Ground-State Mulliken Net Atomic Charges

     Atom                 Charge (a.u.)
  ----------------------------------------
      1 C                    -0.215389
      2 C                    -0.251614
      3 C                     0.047449
      4 H                     0.185559
      5 C                    -0.036352
      6 S                     0.013898
      7 C                    -0.306165
      8 H                     0.110586
      9 H                     0.120937
     10 H                     0.110254
     11 H                     0.204961
     12 C                     0.012780
     13 C                    -0.227739
     14 C                     0.016473
     15 H                     0.182005
     16 C                    -0.234377
     17 S                     0.018062
     18 C                    -0.269812
     19 H                     0.103030
     20 H                     0.108371
     21 H                     0.107789
     22 H                     0.199292
  ----------------------------------------
  Sum of atomic charges =     0.000000

                    Cartesian Multipole Moments
 -----------------------------------------------------------------
    Charge (ESU x 10^10)
                -0.0000
    Dipole Moment (Debye)
         X       1.4795      Y       0.3476      Z       0.0557
       Tot       1.5208
    Quadrupole Moments (Debye-Ang)
        XX     -89.8072     XY       2.3809     YY     -70.7487
        XZ      -2.5717     YZ       2.9777     ZZ     -81.5427

 Total job time:  49.09s(wall), 1734.26s(cpu)
        *  Thank you very much for using Q-Chem.  Have a nice day.  *
