 Q-Chem 5.4, Q-Chem, Inc., Pleasanton, CA (2021)
 Q-Chem 5.4.0 for Intel X86 EM64T Linux

User input:
--------------------------------------------------------------
$molecule
0 1
C	-0.464838	-3.887800	-0.555670
C	0.425760	-3.701456	0.505790
C	0.697866	-2.345170	0.831053
H	0.879984	-4.545233	1.046496
C	-0.000000	-1.450135	-0.000000
S	-0.981588	-2.321334	-1.170382
C	1.627381	-1.934439	1.939074
H	2.055015	-2.819799	2.448051
H	1.107991	-1.326210	2.708853
H	2.475210	-1.325374	1.561590
H	-0.839549	-4.815326	-1.002886
C	0.000000	0.000000	0.000000
C	0.070542	0.841660	1.113020
C	0.187101	2.227746	0.820578
H	0.038051	0.454925	2.142881
C	0.208076	2.475009	-0.563588
S	0.080917	0.967235	-1.464748
C	0.276318	3.288613	1.882380
H	0.238704	2.842244	2.894974
H	-0.557951	4.017140	1.808137
H	1.220618	3.867466	1.808230
H	0.288286	3.429678	-1.097114
$end

$rem
JOBTYPE		SP
EXCHANGE	HF
CORRELATION	pRIMP2
BASIS		cc-pvtz
METHOD		rimp2
AUX_BASIS	rimp2-cc-pvtz
SOLVENT_METHOD	PCM
PURECART	11111
SYMMETRY	false
MEM_TOTAL	110000
SCF_CONVERGENCE = 6
THRESH=10
GUI = 2
$end

$solvent
dielectric 4.90
$end
--------------------------------------------------------------

             Standard Nuclear Orientation (Angstroms)
    I     Atom           X                Y                Z
 ----------------------------------------------------------------
    1      C      -0.4648380000    -3.8878000000    -0.5556700000
    2      C       0.4257600000    -3.7014560000     0.5057900000
    3      C       0.6978660000    -2.3451700000     0.8310530000
    4      H       0.8799840000    -4.5452330000     1.0464960000
    5      C       0.0000000000    -1.4501350000     0.0000000000
    6      S      -0.9815880000    -2.3213340000    -1.1703820000
    7      C       1.6273810000    -1.9344390000     1.9390740000
    8      H       2.0550150000    -2.8197990000     2.4480510000
    9      H       1.1079910000    -1.3262100000     2.7088530000
   10      H       2.4752100000    -1.3253740000     1.5615900000
   11      H      -0.8395490000    -4.8153260000    -1.0028860000
   12      C       0.0000000000     0.0000000000     0.0000000000
   13      C       0.0705420000     0.8416600000     1.1130200000
   14      C       0.1871010000     2.2277460000     0.8205780000
   15      H       0.0380510000     0.4549250000     2.1428810000
   16      C       0.2080760000     2.4750090000    -0.5635880000
   17      S       0.0809170000     0.9672350000    -1.4647480000
   18      C       0.2763180000     3.2886130000     1.8823800000
   19      H       0.2387040000     2.8422440000     2.8949740000
   20      H      -0.5579510000     4.0171400000     1.8081370000
   21      H       1.2206180000     3.8674660000     1.8082300000
   22      H       0.2882860000     3.4296780000    -1.0971140000
 ----------------------------------------------------------------

   10   -1179.6861171436      5.25e-07  Convergence criterion met
 Total energy in the final basis set =    -1179.6861171436
        RIMP2         total energy =     -1181.6650619420 a.u.

                    Orbital Energies (a.u.)
 --------------------------------------------------------------

 Alpha MOs
 -- Occupied --
-91.9862 -91.9858 -11.2821 -11.2772 -11.2731 -11.2643 -11.2539 -11.2520
-11.2437 -11.2401 -11.2299 -11.2295  -8.9857  -8.9855  -6.6667  -6.6664
 -6.6661  -6.6659  -6.6655  -6.6653  -1.1797  -1.1502  -1.0403  -1.0254
 -0.9960  -0.9555  -0.9135  -0.8939  -0.8014  -0.7544  -0.7292  -0.6984
 -0.6620  -0.6156  -0.5875  -0.5809  -0.5703  -0.5638  -0.5514  -0.5367
 -0.5295  -0.5217  -0.5056  -0.4923  -0.4884  -0.4716  -0.4572  -0.3571
 -0.3433  -0.3397  -0.2784

          Ground-State Mulliken Net Atomic Charges

     Atom                 Charge (a.u.)
  ----------------------------------------
      1 C                    -0.213407
      2 C                    -0.249783
      3 C                     0.051329
      4 H                     0.185408
      5 C                    -0.036130
      6 S                     0.017828
      7 C                    -0.293054
      8 H                     0.112993
      9 H                     0.106177
     10 H                     0.115802
     11 H                     0.205261
     12 C                     0.006970
     13 C                    -0.246563
     14 C                     0.025154
     15 H                     0.192434
     16 C                    -0.246887
     17 S                     0.019631
     18 C                    -0.271702
     19 H                     0.102150
     20 H                     0.108925
     21 H                     0.108494
     22 H                     0.198970
  ----------------------------------------
  Sum of atomic charges =     0.000000

                    Cartesian Multipole Moments
 -----------------------------------------------------------------
    Charge (ESU x 10^10)
                -0.0000
    Dipole Moment (Debye)
         X       1.1350      Y       0.1747      Z       2.6366
       Tot       2.8758
    Quadrupole Moments (Debye-Ang)
        XX     -89.9504     XY      -0.4886     YY     -68.5388
        XZ       3.3698     YZ      -0.5646     ZZ     -82.8770

 Total job time:  54.11s(wall), 1950.98s(cpu)
        *  Thank you very much for using Q-Chem.  Have a nice day.  *
