 Q-Chem 5.4, Q-Chem, Inc., Pleasanton, CA (2021)
 Q-Chem 5.4.0 for Intel X86 EM64T Linux

User input:
--------------------------------------------------------------
$molecule
0 1
C	0.126876	-3.887800	-0.713264
C	-0.113784	-3.701456	0.651267
C	-0.188043	-2.345170	1.068787
H	-0.236019	-4.545233	1.346782
C	0.000000	-1.450135	0.000000
S	0.265612	-2.321334	-1.504247
C	-0.439357	-1.934439	2.493059
H	-0.554378	-2.819799	3.147809
H	-1.362899	-1.326210	2.589987
H	0.394786	-1.325374	2.899892
H	0.228603	-4.815326	-1.287774
C	0.000000	0.000000	0.000000
C	-0.003081	0.844605	1.113020
C	-0.007772	2.235575	0.820578
H	-0.001743	0.456510	2.142881
C	-0.008427	2.483726	-0.563588
S	-0.003691	0.970607	-1.464748
C	-0.011355	3.300181	1.882380
H	-0.009922	2.852233	2.894974
H	-0.905944	3.953225	1.808137
H	0.878901	3.959133	1.808230
H	-0.011727	3.441752	-1.097114
$end

$rem
JOBTYPE		SP
EXCHANGE	HF
CORRELATION	pRIMP2
BASIS		cc-pvtz
METHOD		rimp2
AUX_BASIS	rimp2-cc-pvtz
SOLVENT_METHOD	PCM
PURECART	11111
SYMMETRY	false
MEM_TOTAL	110000
SCF_CONVERGENCE = 6
THRESH=10
GUI = 2
$end

$solvent
dielectric 4.90
$end
--------------------------------------------------------------

             Standard Nuclear Orientation (Angstroms)
    I     Atom           X                Y                Z
 ----------------------------------------------------------------
    1      C       0.1268760000    -3.8878000000    -0.7132640000
    2      C      -0.1137840000    -3.7014560000     0.6512670000
    3      C      -0.1880430000    -2.3451700000     1.0687870000
    4      H      -0.2360190000    -4.5452330000     1.3467820000
    5      C       0.0000000000    -1.4501350000     0.0000000000
    6      S       0.2656120000    -2.3213340000    -1.5042470000
    7      C      -0.4393570000    -1.9344390000     2.4930590000
    8      H      -0.5543780000    -2.8197990000     3.1478090000
    9      H      -1.3628990000    -1.3262100000     2.5899870000
   10      H       0.3947860000    -1.3253740000     2.8998920000
   11      H       0.2286030000    -4.8153260000    -1.2877740000
   12      C       0.0000000000     0.0000000000     0.0000000000
   13      C      -0.0030810000     0.8446050000     1.1130200000
   14      C      -0.0077720000     2.2355750000     0.8205780000
   15      H      -0.0017430000     0.4565100000     2.1428810000
   16      C      -0.0084270000     2.4837260000    -0.5635880000
   17      S      -0.0036910000     0.9706070000    -1.4647480000
   18      C      -0.0113550000     3.3001810000     1.8823800000
   19      H      -0.0099220000     2.8522330000     2.8949740000
   20      H      -0.9059440000     3.9532250000     1.8081370000
   21      H       0.8789010000     3.9591330000     1.8082300000
   22      H      -0.0117270000     3.4417520000    -1.0971140000
 ----------------------------------------------------------------

   10   -1179.6851336531      5.22e-07  Convergence criterion met
 Total energy in the final basis set =    -1179.6851336531
        RIMP2         total energy =     -1181.6650425103 a.u.

                    Orbital Energies (a.u.)
 --------------------------------------------------------------

 Alpha MOs
 -- Occupied --
-91.9862 -91.9861 -11.2845 -11.2796 -11.2734 -11.2640 -11.2542 -11.2522
-11.2446 -11.2385 -11.2319 -11.2295  -8.9860  -8.9858  -6.6670  -6.6668
 -6.6664  -6.6662  -6.6658  -6.6656  -1.1811  -1.1506  -1.0411  -1.0281
 -0.9957  -0.9560  -0.9152  -0.8951  -0.8025  -0.7565  -0.7269  -0.7015
 -0.6621  -0.6147  -0.5916  -0.5825  -0.5701  -0.5632  -0.5515  -0.5402
 -0.5299  -0.5232  -0.5031  -0.4916  -0.4897  -0.4766  -0.4521  -0.3696
 -0.3474  -0.3381  -0.2700

          Ground-State Mulliken Net Atomic Charges

     Atom                 Charge (a.u.)
  ----------------------------------------
      1 C                    -0.211446
      2 C                    -0.257061
      3 C                     0.078483
      4 H                     0.185180
      5 C                    -0.054507
      6 S                     0.009150
      7 C                    -0.313506
      8 H                     0.119779
      9 H                     0.115271
     10 H                     0.105641
     11 H                     0.207372
     12 C                     0.032532
     13 C                    -0.236132
     14 C                     0.019735
     15 H                     0.196896
     16 C                    -0.251009
     17 S                     0.006321
     18 C                    -0.271920
     19 H                     0.101312
     20 H                     0.108754
     21 H                     0.108809
     22 H                     0.200346
  ----------------------------------------
  Sum of atomic charges =     0.000000

                    Cartesian Multipole Moments
 -----------------------------------------------------------------
    Charge (ESU x 10^10)
                -0.0000
    Dipole Moment (Debye)
         X      -0.2712      Y       0.0921      Z       2.9567
       Tot       2.9706
    Quadrupole Moments (Debye-Ang)
        XX     -92.6010     XY       0.3543     YY     -68.2102
        XZ      -1.1734     YZ      -1.1257     ZZ     -80.2041

 Total job time:  53.17s(wall), 1884.02s(cpu)
        *  Thank you very much for using Q-Chem.  Have a nice day.  *
