 Q-Chem 5.4, Q-Chem, Inc., Pleasanton, CA (2021)
 Q-Chem 5.4.0 for Intel X86 EM64T Linux

User input:
--------------------------------------------------------------
$molecule
0 1
C	0.337756	-3.873100	0.724460
C	0.321571	-3.687462	-0.661131
C	0.203990	-2.336281	-1.085203
H	0.394716	-4.528062	-1.367305
C	0.126388	-1.444617	0.000000
S	0.201952	-2.312532	1.527517
C	0.168365	-1.927099	-2.531478
H	0.245108	-2.809126	-3.196254
H	1.004638	-1.243381	-2.787305
H	-0.773440	-1.398104	-2.787282
H	0.418178	-4.797134	1.307907
C	0.000000	0.000000	0.000000
C	0.143630	0.832309	1.113020
C	0.380550	2.202961	0.820578
H	0.077556	0.449877	2.142881
C	0.422995	2.447456	-0.563588
S	0.164909	0.956502	-1.464748
C	0.561888	3.252016	1.882380
H	0.485513	2.810624	2.894974
H	-0.205711	4.050482	1.808137
H	1.553045	3.746365	1.808230
H	0.586105	3.391501	-1.097114
$end

$rem
JOBTYPE		SP
EXCHANGE	HF
CORRELATION	pRIMP2
BASIS		cc-pvtz
METHOD		rimp2
AUX_BASIS	rimp2-cc-pvtz
SOLVENT_METHOD	PCM
PURECART	11111
SYMMETRY	false
MEM_TOTAL	110000
SCF_CONVERGENCE = 6
THRESH=10
GUI = 2
$end

$solvent
dielectric 4.90
$end
--------------------------------------------------------------

             Standard Nuclear Orientation (Angstroms)
    I     Atom           X                Y                Z
 ----------------------------------------------------------------
    1      C       0.3377560000    -3.8731000000     0.7244600000
    2      C       0.3215710000    -3.6874620000    -0.6611310000
    3      C       0.2039900000    -2.3362810000    -1.0852030000
    4      H       0.3947160000    -4.5280620000    -1.3673050000
    5      C       0.1263880000    -1.4446170000     0.0000000000
    6      S       0.2019520000    -2.3125320000     1.5275170000
    7      C       0.1683650000    -1.9270990000    -2.5314780000
    8      H       0.2451080000    -2.8091260000    -3.1962540000
    9      H       1.0046380000    -1.2433810000    -2.7873050000
   10      H      -0.7734400000    -1.3981040000    -2.7872820000
   11      H       0.4181780000    -4.7971340000     1.3079070000
   12      C       0.0000000000     0.0000000000     0.0000000000
   13      C       0.1436300000     0.8323090000     1.1130200000
   14      C       0.3805500000     2.2029610000     0.8205780000
   15      H       0.0775560000     0.4498770000     2.1428810000
   16      C       0.4229950000     2.4474560000    -0.5635880000
   17      S       0.1649090000     0.9565020000    -1.4647480000
   18      C       0.5618880000     3.2520160000     1.8823800000
   19      H       0.4855130000     2.8106240000     2.8949740000
   20      H      -0.2057110000     4.0504820000     1.8081370000
   21      H       1.5530450000     3.7463650000     1.8082300000
   22      H       0.5861050000     3.3915010000    -1.0971140000
 ----------------------------------------------------------------

   10   -1179.6818685514      5.19e-07  Convergence criterion met
 Total energy in the final basis set =    -1179.6818685514
        RIMP2         total energy =     -1181.6633646927 a.u.

                    Orbital Energies (a.u.)
 --------------------------------------------------------------

 Alpha MOs
 -- Occupied --
-91.9853 -91.9852 -11.2836 -11.2791 -11.2727 -11.2630 -11.2529 -11.2524
-11.2437 -11.2399 -11.2298 -11.2290  -8.9851  -8.9850  -6.6660  -6.6659
 -6.6654  -6.6654  -6.6648  -6.6647  -1.1813  -1.1500  -1.0417  -1.0255
 -0.9985  -0.9524  -0.9146  -0.8957  -0.7992  -0.7653  -0.7193  -0.6958
 -0.6629  -0.6161  -0.5838  -0.5826  -0.5775  -0.5696  -0.5527  -0.5335
 -0.5229  -0.5208  -0.5113  -0.4975  -0.4895  -0.4676  -0.4504  -0.3707
 -0.3436  -0.3402  -0.2684

          Ground-State Mulliken Net Atomic Charges

     Atom                 Charge (a.u.)
  ----------------------------------------
      1 C                    -0.211992
      2 C                    -0.254154
      3 C                     0.054189
      4 H                     0.185771
      5 C                    -0.028564
      6 S                     0.006203
      7 C                    -0.323323
      8 H                     0.118300
      9 H                     0.115706
     10 H                     0.116280
     11 H                     0.207045
     12 C                     0.059720
     13 C                    -0.276888
     14 C                     0.041323
     15 H                     0.175616
     16 C                    -0.260985
     17 S                     0.025911
     18 C                    -0.269536
     19 H                     0.102811
     20 H                     0.108400
     21 H                     0.108797
     22 H                     0.199370
  ----------------------------------------
  Sum of atomic charges =     0.000000

                    Cartesian Multipole Moments
 -----------------------------------------------------------------
    Charge (ESU x 10^10)
                -0.0000
    Dipole Moment (Debye)
         X       0.4772      Y       0.1330      Z      -0.1712
       Tot       0.5241
    Quadrupole Moments (Debye-Ang)
        XX     -92.3561     XY       0.6693     YY     -69.1528
        XZ      -0.0461     YZ       3.5378     ZZ     -79.7550

 Total job time:  56.29s(wall), 1838.46s(cpu)
        *  Thank you very much for using Q-Chem.  Have a nice day.  *
