 Q-Chem 5.4, Q-Chem, Inc., Pleasanton, CA (2021)
 Q-Chem 5.4.0 for Intel X86 EM64T Linux

User input:
--------------------------------------------------------------
$molecule
0 1
C	-0.713264	-3.887800	-0.126876
C	0.651267	-3.701456	0.113784
C	1.068787	-2.345170	0.188043
H	1.346782	-4.545233	0.236019
C	0.000000	-1.450135	0.000000
S	-1.504247	-2.321334	-0.265612
C	2.493059	-1.934439	0.439357
H	3.147809	-2.819799	0.554378
H	2.589987	-1.326210	1.362899
H	2.899892	-1.325374	-0.394786
H	-1.287774	-4.815326	-0.228603
C	0.000000	0.000000	0.000000
C	0.729909	0.424971	1.113020
C	1.932179	1.124518	0.820578
H	0.394478	0.229765	2.142881
C	2.146756	1.249161	-0.563588
S	0.838724	0.488500	-1.464748
C	2.852364	1.659924	1.882380
H	2.465145	1.434710	2.894974
H	2.970621	2.761183	1.808137
H	3.868160	1.218416	1.808230
H	2.974781	1.731032	-1.097114
$end

$rem
JOBTYPE		SP
EXCHANGE	HF
CORRELATION	pRIMP2
BASIS		cc-pvtz
METHOD		rimp2
AUX_BASIS	rimp2-cc-pvtz
SOLVENT_METHOD	PCM
PURECART	11111
SYMMETRY	false
MEM_TOTAL	110000
SCF_CONVERGENCE = 6
THRESH=10
GUI = 2
$end

$solvent
dielectric 4.90
$end
--------------------------------------------------------------

             Standard Nuclear Orientation (Angstroms)
    I     Atom           X                Y                Z
 ----------------------------------------------------------------
    1      C      -0.7132640000    -3.8878000000    -0.1268760000
    2      C       0.6512670000    -3.7014560000     0.1137840000
    3      C       1.0687870000    -2.3451700000     0.1880430000
    4      H       1.3467820000    -4.5452330000     0.2360190000
    5      C       0.0000000000    -1.4501350000     0.0000000000
    6      S      -1.5042470000    -2.3213340000    -0.2656120000
    7      C       2.4930590000    -1.9344390000     0.4393570000
    8      H       3.1478090000    -2.8197990000     0.5543780000
    9      H       2.5899870000    -1.3262100000     1.3628990000
   10      H       2.8998920000    -1.3253740000    -0.3947860000
   11      H      -1.2877740000    -4.8153260000    -0.2286030000
   12      C       0.0000000000     0.0000000000     0.0000000000
   13      C       0.7299090000     0.4249710000     1.1130200000
   14      C       1.9321790000     1.1245180000     0.8205780000
   15      H       0.3944780000     0.2297650000     2.1428810000
   16      C       2.1467560000     1.2491610000    -0.5635880000
   17      S       0.8387240000     0.4885000000    -1.4647480000
   18      C       2.8523640000     1.6599240000     1.8823800000
   19      H       2.4651450000     1.4347100000     2.8949740000
   20      H       2.9706210000     2.7611830000     1.8081370000
   21      H       3.8681600000     1.2184160000     1.8082300000
   22      H       2.9747810000     1.7310320000    -1.0971140000
 ----------------------------------------------------------------

   11   -1179.6125637514      4.86e-07  Convergence criterion met
 Total energy in the final basis set =    -1179.6125637514
        RIMP2         total energy =     -1181.6121146678 a.u.

                    Orbital Energies (a.u.)
 --------------------------------------------------------------

 Alpha MOs
 -- Occupied --
-91.9832 -91.9743 -11.2884 -11.2740 -11.2651 -11.2622 -11.2519 -11.2504
-11.2412 -11.2373 -11.2320 -11.2237  -8.9835  -8.9743  -6.6643  -6.6635
 -6.6632  -6.6552  -6.6546  -6.6541  -1.1905  -1.1447  -1.0452  -1.0173
 -1.0003  -0.9520  -0.9141  -0.8885  -0.7939  -0.7498  -0.7415  -0.6949
 -0.6545  -0.6215  -0.5868  -0.5845  -0.5731  -0.5658  -0.5481  -0.5347
 -0.5249  -0.5228  -0.5128  -0.4870  -0.4678  -0.4628  -0.4436  -0.3517
 -0.3367  -0.3200  -0.2910

          Ground-State Mulliken Net Atomic Charges

     Atom                 Charge (a.u.)
  ----------------------------------------
      1 C                    -0.223028
      2 C                    -0.258748
      3 C                     0.049731
      4 H                     0.182967
      5 C                     0.002557
      6 S                    -0.001110
      7 C                    -0.330621
      8 H                     0.120986
      9 H                     0.112207
     10 H                     0.118911
     11 H                     0.198987
     12 C                    -0.161368
     13 C                    -0.123504
     14 C                     0.003912
     15 H                     0.194361
     16 C                    -0.190801
     17 S                     0.044191
     18 C                    -0.275891
     19 H                     0.106309
     20 H                     0.119953
     21 H                     0.106153
     22 H                     0.203847
  ----------------------------------------
  Sum of atomic charges =     0.000000

                    Cartesian Multipole Moments
 -----------------------------------------------------------------
    Charge (ESU x 10^10)
                -0.0000
    Dipole Moment (Debye)
         X       4.3839      Y       0.7763      Z       1.9668
       Tot       4.8672
    Quadrupole Moments (Debye-Ang)
        XX     -77.4437     XY       3.1227     YY     -80.3375
        XZ       1.5848     YZ       0.2239     ZZ     -85.6802

 Total job time:  56.19s(wall), 1978.17s(cpu)
        *  Thank you very much for using Q-Chem.  Have a nice day.  *
