 Q-Chem 5.4, Q-Chem, Inc., Pleasanton, CA (2021)
 Q-Chem 5.4.0 for Intel X86 EM64T Linux

User input:
--------------------------------------------------------------
$molecule
0 1
C	-0.139145	-3.872011	0.792466
C	0.102109	-3.714320	-0.575568
C	0.180649	-2.367079	-1.020681
H	0.221685	-4.572499	-1.253706
C	-0.004575	-1.449826	0.029601
S	-0.272941	-2.289295	1.551299
C	0.433263	-1.986302	-2.453023
H	0.545494	-2.885200	-3.089557
H	1.358721	-1.383093	-2.562283
H	-0.398952	-1.383040	-2.872261
H	-0.243800	-4.787291	1.385782
C	0.000000	0.000000	0.000000
C	-0.000422	0.867154	1.095548
C	-0.000723	2.251873	0.774773
H	-0.000313	0.500160	2.133116
C	-0.000589	2.471718	-0.614169
S	-0.000622	0.940512	-1.484255
C	-0.000952	3.337937	1.814623
H	-0.000937	2.910749	2.836150
H	-0.893476	3.992147	1.727003
H	0.891379	3.992426	1.727100
H	-0.000863	3.418660	-1.167140
$end

$rem
JOBTYPE		SP
EXCHANGE	HF
CORRELATION	pRIMP2
BASIS		cc-pvtz
METHOD		rimp2
AUX_BASIS	rimp2-cc-pvtz
SOLVENT_METHOD	PCM
PURECART	11111
SYMMETRY	false
MEM_TOTAL	110000
SCF_CONVERGENCE = 6
THRESH=10
GUI = 2
$end

$solvent
dielectric 4.90
$end
--------------------------------------------------------------

             Standard Nuclear Orientation (Angstroms)
    I     Atom           X                Y                Z
 ----------------------------------------------------------------
    1      C      -0.1391450000    -3.8720110000     0.7924660000
    2      C       0.1021090000    -3.7143200000    -0.5755680000
    3      C       0.1806490000    -2.3670790000    -1.0206810000
    4      H       0.2216850000    -4.5724990000    -1.2537060000
    5      C      -0.0045750000    -1.4498260000     0.0296010000
    6      S      -0.2729410000    -2.2892950000     1.5512990000
    7      C       0.4332630000    -1.9863020000    -2.4530230000
    8      H       0.5454940000    -2.8852000000    -3.0895570000
    9      H       1.3587210000    -1.3830930000    -2.5622830000
   10      H      -0.3989520000    -1.3830400000    -2.8722610000
   11      H      -0.2438000000    -4.7872910000     1.3857820000
   12      C       0.0000000000     0.0000000000     0.0000000000
   13      C      -0.0004220000     0.8671540000     1.0955480000
   14      C      -0.0007230000     2.2518730000     0.7747730000
   15      H      -0.0003130000     0.5001600000     2.1331160000
   16      C      -0.0005890000     2.4717180000    -0.6141690000
   17      S      -0.0006220000     0.9405120000    -1.4842550000
   18      C      -0.0009520000     3.3379370000     1.8146230000
   19      H      -0.0009370000     2.9107490000     2.8361500000
   20      H      -0.8934760000     3.9921470000     1.7270030000
   21      H       0.8913790000     3.9924260000     1.7271000000
   22      H      -0.0008630000     3.4186600000    -1.1671400000
 ----------------------------------------------------------------

   10   -1179.6867376261      5.45e-07  Convergence criterion met
 Total energy in the final basis set =    -1179.6867376261
        RIMP2         total energy =     -1181.6667366695 a.u.

                    Orbital Energies (a.u.)
 --------------------------------------------------------------

 Alpha MOs
 -- Occupied --
-91.9860 -91.9855 -11.2848 -11.2790 -11.2738 -11.2617 -11.2541 -11.2521
-11.2441 -11.2386 -11.2303 -11.2289  -8.9858  -8.9852  -6.6668  -6.6662
 -6.6661  -6.6656  -6.6656  -6.6649  -1.1808  -1.1502  -1.0414  -1.0258
 -0.9986  -0.9526  -0.9149  -0.8955  -0.7997  -0.7651  -0.7193  -0.6959
 -0.6634  -0.6160  -0.5840  -0.5820  -0.5772  -0.5696  -0.5529  -0.5336
 -0.5234  -0.5205  -0.5108  -0.4975  -0.4913  -0.4681  -0.4513  -0.3699
 -0.3439  -0.3402  -0.2695

          Ground-State Mulliken Net Atomic Charges

     Atom                 Charge (a.u.)
  ----------------------------------------
      1 C                    -0.210629
      2 C                    -0.256894
      3 C                     0.054489
      4 H                     0.185949
      5 C                    -0.025568
      6 S                     0.009387
      7 C                    -0.322384
      8 H                     0.118156
      9 H                     0.119450
     10 H                     0.112985
     11 H                     0.207432
     12 C                     0.059828
     13 C                    -0.272534
     14 C                     0.033406
     15 H                     0.176254
     16 C                    -0.258815
     17 S                     0.021392
     18 C                    -0.271317
     19 H                     0.102889
     20 H                     0.108671
     21 H                     0.108416
     22 H                     0.199437
  ----------------------------------------
  Sum of atomic charges =     0.000000

                    Cartesian Multipole Moments
 -----------------------------------------------------------------
    Charge (ESU x 10^10)
                -0.0000
    Dipole Moment (Debye)
         X       0.2748      Y      -0.0140      Z      -0.1514
       Tot       0.3141
    Quadrupole Moments (Debye-Ang)
        XX     -92.5956     XY      -0.4007     YY     -68.3272
        XZ      -1.1889     YZ       3.2828     ZZ     -80.1010

 Total job time:  53.57s(wall), 1816.40s(cpu)
        *  Thank you very much for using Q-Chem.  Have a nice day.  *
