 Q-Chem 5.4, Q-Chem, Inc., Pleasanton, CA (2021)
 Q-Chem 5.4.0 for Intel X86 EM64T Linux

User input:
--------------------------------------------------------------
$molecule
0 1
C	-0.724460	-3.887800	-0.001092
C	0.661131	-3.701456	-0.001036
C	1.085203	-2.345170	-0.000406
H	1.367305	-4.545233	-0.001433
C	0.000000	-1.450135	0.000000
S	-1.527517	-2.321334	-0.000367
C	2.531478	-1.934439	-0.000233
H	3.196254	-2.819799	-0.000656
H	2.787305	-1.326210	0.892447
H	2.787282	-1.325374	-0.892350
H	-1.307907	-4.815326	-0.001511
C	0.000000	0.000000	0.000000
C	0.143630	0.832309	1.113020
C	0.380550	2.202961	0.820578
H	0.077556	0.449877	2.142881
C	0.422995	2.447456	-0.563588
S	0.164909	0.956502	-1.464748
C	0.561888	3.252016	1.882380
H	0.485513	2.810624	2.894974
H	-0.205711	4.050482	1.808137
H	1.553045	3.746365	1.808230
H	0.586105	3.391501	-1.097114
$end

$rem
JOBTYPE		SP
EXCHANGE	HF
CORRELATION	pRIMP2
BASIS		cc-pvtz
METHOD		rimp2
AUX_BASIS	rimp2-cc-pvtz
SOLVENT_METHOD	PCM
PURECART	11111
SYMMETRY	false
MEM_TOTAL	110000
SCF_CONVERGENCE = 6
THRESH=10
GUI = 2
$end

$solvent
dielectric 4.90
$end
--------------------------------------------------------------

             Standard Nuclear Orientation (Angstroms)
    I     Atom           X                Y                Z
 ----------------------------------------------------------------
    1      C      -0.7244600000    -3.8878000000    -0.0010920000
    2      C       0.6611310000    -3.7014560000    -0.0010360000
    3      C       1.0852030000    -2.3451700000    -0.0004060000
    4      H       1.3673050000    -4.5452330000    -0.0014330000
    5      C       0.0000000000    -1.4501350000     0.0000000000
    6      S      -1.5275170000    -2.3213340000    -0.0003670000
    7      C       2.5314780000    -1.9344390000    -0.0002330000
    8      H       3.1962540000    -2.8197990000    -0.0006560000
    9      H       2.7873050000    -1.3262100000     0.8924470000
   10      H       2.7872820000    -1.3253740000    -0.8923500000
   11      H      -1.3079070000    -4.8153260000    -0.0015110000
   12      C       0.0000000000     0.0000000000     0.0000000000
   13      C       0.1436300000     0.8323090000     1.1130200000
   14      C       0.3805500000     2.2029610000     0.8205780000
   15      H       0.0775560000     0.4498770000     2.1428810000
   16      C       0.4229950000     2.4474560000    -0.5635880000
   17      S       0.1649090000     0.9565020000    -1.4647480000
   18      C       0.5618880000     3.2520160000     1.8823800000
   19      H       0.4855130000     2.8106240000     2.8949740000
   20      H      -0.2057110000     4.0504820000     1.8081370000
   21      H       1.5530450000     3.7463650000     1.8082300000
   22      H       0.5861050000     3.3915010000    -1.0971140000
 ----------------------------------------------------------------

   10   -1179.6840743209      5.16e-07  Convergence criterion met
 Total energy in the final basis set =    -1179.6840743209
        RIMP2         total energy =     -1181.6623850310 a.u.

                    Orbital Energies (a.u.)
 --------------------------------------------------------------

 Alpha MOs
 -- Occupied --
-91.9856 -91.9846 -11.2782 -11.2734 -11.2725 -11.2658 -11.2538 -11.2510
-11.2424 -11.2421 -11.2292 -11.2289  -8.9850  -8.9842  -6.6659  -6.6654
 -6.6651  -6.6647  -6.6645  -6.6639  -1.1778  -1.1495  -1.0392  -1.0224
 -0.9968  -0.9541  -0.9131  -0.8924  -0.7995  -0.7535  -0.7301  -0.6951
 -0.6618  -0.6166  -0.5820  -0.5793  -0.5712  -0.5689  -0.5514  -0.5304
 -0.5293  -0.5198  -0.5082  -0.4921  -0.4874  -0.4636  -0.4629  -0.3449
 -0.3396  -0.3127  -0.3122

          Ground-State Mulliken Net Atomic Charges

     Atom                 Charge (a.u.)
  ----------------------------------------
      1 C                    -0.215255
      2 C                    -0.248143
      3 C                     0.053483
      4 H                     0.185180
      5 C                    -0.039720
      6 S                     0.028204
      7 C                    -0.281180
      8 H                     0.108466
      9 H                     0.110094
     10 H                     0.110837
     11 H                     0.203809
     12 C                    -0.029761
     13 C                    -0.226747
     14 C                     0.019459
     15 H                     0.185701
     16 C                    -0.237851
     17 S                     0.027248
     18 C                    -0.271165
     19 H                     0.102839
     20 H                     0.108385
     21 H                     0.107792
     22 H                     0.198324
  ----------------------------------------
  Sum of atomic charges =     0.000000

                    Cartesian Multipole Moments
 -----------------------------------------------------------------
    Charge (ESU x 10^10)
                -0.0000
    Dipole Moment (Debye)
         X       1.8567      Y       0.2842      Z       1.4783
       Tot       2.3902
    Quadrupole Moments (Debye-Ang)
        XX     -85.8600     XY      -0.4397     YY     -69.1470
        XZ       0.1830     YZ       1.1278     ZZ     -86.7306

 Total job time:  57.65s(wall), 1995.21s(cpu)
        *  Thank you very much for using Q-Chem.  Have a nice day.  *
