 Q-Chem 5.4, Q-Chem, Inc., Pleasanton, CA (2021)
 Q-Chem 5.4.0 for Intel X86 EM64T Linux

User input:
--------------------------------------------------------------
$molecule
0 1
C	-0.246754	-3.887800	-0.681143
C	0.227093	-3.701456	0.620906
C	0.371543	-2.345170	1.019618
H	0.468992	-4.545233	1.284357
C	0.000000	-1.450135	0.000000
S	-0.522097	-2.321334	-1.435522
C	0.866035	-1.934439	2.378731
H	1.093799	-2.819799	3.003272
H	0.114688	-1.326210	2.924444
H	1.791841	-1.325374	2.313987
H	-0.445911	-4.815326	-1.229547
C	0.000000	0.000000	0.000000
C	-0.003081	0.844605	1.113020
C	-0.007772	2.235575	0.820578
H	-0.001743	0.456510	2.142881
C	-0.008427	2.483726	-0.563588
S	-0.003691	0.970607	-1.464748
C	-0.011355	3.300181	1.882380
H	-0.009922	2.852233	2.894974
H	-0.905944	3.953225	1.808137
H	0.878901	3.959133	1.808230
H	-0.011727	3.441752	-1.097114
$end

$rem
JOBTYPE		SP
EXCHANGE	HF
CORRELATION	pRIMP2
BASIS		cc-pvtz
METHOD		rimp2
AUX_BASIS	rimp2-cc-pvtz
SOLVENT_METHOD	PCM
PURECART	11111
SYMMETRY	false
MEM_TOTAL	110000
SCF_CONVERGENCE = 6
THRESH=10
GUI = 2
$end

$solvent
dielectric 4.90
$end
--------------------------------------------------------------

             Standard Nuclear Orientation (Angstroms)
    I     Atom           X                Y                Z
 ----------------------------------------------------------------
    1      C      -0.2467540000    -3.8878000000    -0.6811430000
    2      C       0.2270930000    -3.7014560000     0.6209060000
    3      C       0.3715430000    -2.3451700000     1.0196180000
    4      H       0.4689920000    -4.5452330000     1.2843570000
    5      C       0.0000000000    -1.4501350000     0.0000000000
    6      S      -0.5220970000    -2.3213340000    -1.4355220000
    7      C       0.8660350000    -1.9344390000     2.3787310000
    8      H       1.0937990000    -2.8197990000     3.0032720000
    9      H       0.1146880000    -1.3262100000     2.9244440000
   10      H       1.7918410000    -1.3253740000     2.3139870000
   11      H      -0.4459110000    -4.8153260000    -1.2295470000
   12      C       0.0000000000     0.0000000000     0.0000000000
   13      C      -0.0030810000     0.8446050000     1.1130200000
   14      C      -0.0077720000     2.2355750000     0.8205780000
   15      H      -0.0017430000     0.4565100000     2.1428810000
   16      C      -0.0084270000     2.4837260000    -0.5635880000
   17      S      -0.0036910000     0.9706070000    -1.4647480000
   18      C      -0.0113550000     3.3001810000     1.8823800000
   19      H      -0.0099220000     2.8522330000     2.8949740000
   20      H      -0.9059440000     3.9532250000     1.8081370000
   21      H       0.8789010000     3.9591330000     1.8082300000
   22      H      -0.0117270000     3.4417520000    -1.0971140000
 ----------------------------------------------------------------

   10   -1179.6854506583      5.24e-07  Convergence criterion met
 Total energy in the final basis set =    -1179.6854506583
        RIMP2         total energy =     -1181.6651291715 a.u.

                    Orbital Energies (a.u.)
 --------------------------------------------------------------

 Alpha MOs
 -- Occupied --
-91.9863 -91.9862 -11.2841 -11.2792 -11.2732 -11.2640 -11.2540 -11.2522
-11.2444 -11.2390 -11.2314 -11.2295  -8.9860  -8.9859  -6.6670  -6.6668
 -6.6664  -6.6663  -6.6658  -6.6657  -1.1808  -1.1505  -1.0410  -1.0274
 -0.9958  -0.9560  -0.9147  -0.8948  -0.8023  -0.7560  -0.7275  -0.7007
 -0.6621  -0.6150  -0.5909  -0.5821  -0.5702  -0.5630  -0.5514  -0.5396
 -0.5300  -0.5227  -0.5038  -0.4917  -0.4894  -0.4756  -0.4534  -0.3670
 -0.3463  -0.3386  -0.2716

          Ground-State Mulliken Net Atomic Charges

     Atom                 Charge (a.u.)
  ----------------------------------------
      1 C                    -0.212572
      2 C                    -0.254423
      3 C                     0.071817
      4 H                     0.185169
      5 C                    -0.050443
      6 S                     0.011179
      7 C                    -0.310256
      8 H                     0.117270
      9 H                     0.105059
     10 H                     0.118457
     11 H                     0.206676
     12 C                     0.026013
     13 C                    -0.238377
     14 C                     0.021268
     15 H                     0.196210
     16 C                    -0.249701
     17 S                     0.009623
     18 C                    -0.271968
     19 H                     0.101582
     20 H                     0.108936
     21 H                     0.108696
     22 H                     0.199786
  ----------------------------------------
  Sum of atomic charges =     0.000000

                    Cartesian Multipole Moments
 -----------------------------------------------------------------
    Charge (ESU x 10^10)
                -0.0000
    Dipole Moment (Debye)
         X       0.5152      Y       0.1191      Z       2.8824
       Tot       2.9305
    Quadrupole Moments (Debye-Ang)
        XX     -92.0009     XY      -0.8130     YY     -68.2771
        XZ       2.1749     YZ      -0.9892     ZZ     -80.8318

 Total job time:  52.09s(wall), 1756.07s(cpu)
        *  Thank you very much for using Q-Chem.  Have a nice day.  *
