 Q-Chem 5.4, Q-Chem, Inc., Pleasanton, CA (2021)
 Q-Chem 5.4.0 for Intel X86 EM64T Linux

User input:
--------------------------------------------------------------
$molecule
0 1
C	0.363176	-3.887800	-0.626855
C	-0.329669	-3.701456	0.573074
C	-0.542250	-2.345170	0.940016
H	-0.682412	-4.545233	1.184837
C	-0.000000	-1.450135	-0.000000
S	0.764076	-2.321334	-1.322686
C	-1.265537	-1.934439	2.192440
H	-1.597559	-2.819799	2.768365
H	-2.166534	-1.326210	1.967653
H	-0.620843	-1.325374	2.860032
H	0.655262	-4.815326	-1.131925
C	0.000000	0.000000	0.000000
C	0.215623	0.816623	1.113020
C	0.571102	2.161411	0.820578
H	0.116470	0.441406	2.142881
C	0.634696	2.401276	-0.563588
S	0.247646	0.938489	-1.464748
C	0.843182	3.190669	1.882380
H	0.728628	2.757614	2.894974
H	0.148095	4.052998	1.808137
H	1.873652	3.596752	1.808230
H	0.879464	3.327513	-1.097114
$end

$rem
JOBTYPE		SP
EXCHANGE	HF
CORRELATION	pRIMP2
BASIS		cc-pvtz
METHOD		rimp2
AUX_BASIS	rimp2-cc-pvtz
SOLVENT_METHOD	PCM
PURECART	11111
SYMMETRY	false
MEM_TOTAL	110000
SCF_CONVERGENCE = 6
THRESH=10
GUI = 2
$end

$solvent
dielectric 4.90
$end
--------------------------------------------------------------

             Standard Nuclear Orientation (Angstroms)
    I     Atom           X                Y                Z
 ----------------------------------------------------------------
    1      C       0.3631760000    -3.8878000000    -0.6268550000
    2      C      -0.3296690000    -3.7014560000     0.5730740000
    3      C      -0.5422500000    -2.3451700000     0.9400160000
    4      H      -0.6824120000    -4.5452330000     1.1848370000
    5      C       0.0000000000    -1.4501350000     0.0000000000
    6      S       0.7640760000    -2.3213340000    -1.3226860000
    7      C      -1.2655370000    -1.9344390000     2.1924400000
    8      H      -1.5975590000    -2.8197990000     2.7683650000
    9      H      -2.1665340000    -1.3262100000     1.9676530000
   10      H      -0.6208430000    -1.3253740000     2.8600320000
   11      H       0.6552620000    -4.8153260000    -1.1319250000
   12      C       0.0000000000     0.0000000000     0.0000000000
   13      C       0.2156230000     0.8166230000     1.1130200000
   14      C       0.5711020000     2.1614110000     0.8205780000
   15      H       0.1164700000     0.4414060000     2.1428810000
   16      C       0.6346960000     2.4012760000    -0.5635880000
   17      S       0.2476460000     0.9384890000    -1.4647480000
   18      C       0.8431820000     3.1906690000     1.8823800000
   19      H       0.7286280000     2.7576140000     2.8949740000
   20      H       0.1480950000     4.0529980000     1.8081370000
   21      H       1.8736520000     3.5967520000     1.8082300000
   22      H       0.8794640000     3.3275130000    -1.0971140000
 ----------------------------------------------------------------

   10   -1179.6819473824      4.94e-07  Convergence criterion met
 Total energy in the final basis set =    -1179.6819473824
        RIMP2         total energy =     -1181.6622262647 a.u.

                    Orbital Energies (a.u.)
 --------------------------------------------------------------

 Alpha MOs
 -- Occupied --
-91.9867 -91.9859 -11.2825 -11.2785 -11.2709 -11.2659 -11.2528 -11.2513
-11.2434 -11.2418 -11.2303 -11.2297  -8.9863  -8.9856  -6.6672  -6.6667
 -6.6665  -6.6661  -6.6659  -6.6653  -1.1808  -1.1502  -1.0412  -1.0257
 -0.9960  -0.9561  -0.9133  -0.8945  -0.8020  -0.7546  -0.7289  -0.6991
 -0.6615  -0.6153  -0.5895  -0.5814  -0.5702  -0.5632  -0.5515  -0.5383
 -0.5303  -0.5215  -0.5053  -0.4914  -0.4875  -0.4751  -0.4544  -0.3642
 -0.3444  -0.3386  -0.2733

          Ground-State Mulliken Net Atomic Charges

     Atom                 Charge (a.u.)
  ----------------------------------------
      1 C                    -0.217688
      2 C                    -0.249699
      3 C                     0.049933
      4 H                     0.184949
      5 C                    -0.039162
      6 S                     0.014547
      7 C                    -0.304416
      8 H                     0.113391
      9 H                     0.116182
     10 H                     0.105282
     11 H                     0.205360
     12 C                     0.011572
     13 C                    -0.215757
     14 C                     0.012813
     15 H                     0.193055
     16 C                    -0.234705
     17 S                     0.006942
     18 C                    -0.271882
     19 H                     0.101717
     20 H                     0.108638
     21 H                     0.108903
     22 H                     0.200025
  ----------------------------------------
  Sum of atomic charges =     0.000000

                    Cartesian Multipole Moments
 -----------------------------------------------------------------
    Charge (ESU x 10^10)
                -0.0000
    Dipole Moment (Debye)
         X      -0.2372      Y       0.3375      Z       2.7581
       Tot       2.7888
    Quadrupole Moments (Debye-Ang)
        XX     -90.3842     XY       3.8641     YY     -69.4927
        XZ      -2.5541     YZ      -0.8718     ZZ     -81.7402

 Total job time:  64.12s(wall), 2536.86s(cpu)
        *  Thank you very much for using Q-Chem.  Have a nice day.  *
