 Q-Chem 5.4, Q-Chem, Inc., Pleasanton, CA (2021)
 Q-Chem 5.4.0 for Intel X86 EM64T Linux

User input:
--------------------------------------------------------------
$molecule
0 1
C	-0.246754	-3.887800	-0.681143
C	0.227093	-3.701456	0.620906
C	0.371543	-2.345170	1.019618
H	0.468992	-4.545233	1.284357
C	0.000000	-1.450135	0.000000
S	-0.522097	-2.321334	-1.435522
C	0.866035	-1.934439	2.378731
H	1.093799	-2.819799	3.003272
H	0.114688	-1.326210	2.924444
H	1.791841	-1.325374	2.313987
H	-0.445911	-4.815326	-1.229547
C	0.000000	0.000000	0.000000
C	0.419634	0.732990	1.113020
C	1.111057	1.939951	0.820578
H	0.226746	0.396221	2.142881
C	1.234565	2.155183	-0.563588
S	0.482106	0.842416	-1.464748
C	1.640257	2.863718	1.882380
H	1.417524	2.475067	2.894974
H	1.192042	3.876565	1.808137
H	2.740717	2.989259	1.808230
H	1.710720	2.986508	-1.097114
$end

$rem
JOBTYPE		SP
EXCHANGE	HF
CORRELATION	pRIMP2
BASIS		cc-pvtz
METHOD		rimp2
AUX_BASIS	rimp2-cc-pvtz
SOLVENT_METHOD	PCM
PURECART	11111
SYMMETRY	false
MEM_TOTAL	110000
SCF_CONVERGENCE = 6
THRESH=10
GUI = 2
$end

$solvent
dielectric 4.90
$end
--------------------------------------------------------------

             Standard Nuclear Orientation (Angstroms)
    I     Atom           X                Y                Z
 ----------------------------------------------------------------
    1      C      -0.2467540000    -3.8878000000    -0.6811430000
    2      C       0.2270930000    -3.7014560000     0.6209060000
    3      C       0.3715430000    -2.3451700000     1.0196180000
    4      H       0.4689920000    -4.5452330000     1.2843570000
    5      C       0.0000000000    -1.4501350000     0.0000000000
    6      S      -0.5220970000    -2.3213340000    -1.4355220000
    7      C       0.8660350000    -1.9344390000     2.3787310000
    8      H       1.0937990000    -2.8197990000     3.0032720000
    9      H       0.1146880000    -1.3262100000     2.9244440000
   10      H       1.7918410000    -1.3253740000     2.3139870000
   11      H      -0.4459110000    -4.8153260000    -1.2295470000
   12      C       0.0000000000     0.0000000000     0.0000000000
   13      C       0.4196340000     0.7329900000     1.1130200000
   14      C       1.1110570000     1.9399510000     0.8205780000
   15      H       0.2267460000     0.3962210000     2.1428810000
   16      C       1.2345650000     2.1551830000    -0.5635880000
   17      S       0.4821060000     0.8424160000    -1.4647480000
   18      C       1.6402570000     2.8637180000     1.8823800000
   19      H       1.4175240000     2.4750670000     2.8949740000
   20      H       1.1920420000     3.8765650000     1.8081370000
   21      H       2.7407170000     2.9892590000     1.8082300000
   22      H       1.7107200000     2.9865080000    -1.0971140000
 ----------------------------------------------------------------

   10   -1179.6660825230      5.44e-07  Convergence criterion met
 Total energy in the final basis set =    -1179.6660825230
        RIMP2         total energy =     -1181.6511071079 a.u.

                    Orbital Energies (a.u.)
 --------------------------------------------------------------

 Alpha MOs
 -- Occupied --
-91.9846 -91.9823 -11.2788 -11.2768 -11.2704 -11.2699 -11.2526 -11.2501
-11.2439 -11.2427 -11.2302 -11.2302  -8.9846  -8.9824  -6.6655  -6.6649
 -6.6643  -6.6633  -6.6628  -6.6621  -1.1823  -1.1494  -1.0419  -1.0264
 -0.9955  -0.9549  -0.9144  -0.8945  -0.7998  -0.7555  -0.7286  -0.7018
 -0.6593  -0.6152  -0.5929  -0.5822  -0.5707  -0.5616  -0.5503  -0.5403
 -0.5287  -0.5231  -0.5043  -0.4919  -0.4813  -0.4729  -0.4523  -0.3651
 -0.3462  -0.3376  -0.2699

          Ground-State Mulliken Net Atomic Charges

     Atom                 Charge (a.u.)
  ----------------------------------------
      1 C                    -0.217055
      2 C                    -0.250189
      3 C                     0.057829
      4 H                     0.185263
      5 C                    -0.035365
      6 S                     0.008176
      7 C                    -0.307522
      8 H                     0.116638
      9 H                     0.103038
     10 H                     0.116872
     11 H                     0.205258
     12 C                     0.016291
     13 C                    -0.279861
     14 C                     0.048878
     15 H                     0.199203
     16 C                    -0.242948
     17 S                     0.025289
     18 C                    -0.269467
     19 H                     0.102111
     20 H                     0.109395
     21 H                     0.108614
     22 H                     0.199552
  ----------------------------------------
  Sum of atomic charges =     0.000000

                    Cartesian Multipole Moments
 -----------------------------------------------------------------
    Charge (ESU x 10^10)
                -0.0000
    Dipole Moment (Debye)
         X       1.6277      Y       0.4512      Z       3.0009
       Tot       3.4436
    Quadrupole Moments (Debye-Ang)
        XX     -89.0939     XY       4.1278     YY     -71.9244
        XZ       2.6682     YZ      -1.2550     ZZ     -80.9075

 Total job time:  48.24s(wall), 1721.08s(cpu)
        *  Thank you very much for using Q-Chem.  Have a nice day.  *
