 Q-Chem 5.4, Q-Chem, Inc., Pleasanton, CA (2021)
 Q-Chem 5.4.0 for Intel X86 EM64T Linux

User input:
--------------------------------------------------------------
$molecule
0 1
C	-0.626855	-3.887800	-0.363176
C	0.573074	-3.701456	0.329669
C	0.940016	-2.345170	0.542250
H	1.184837	-4.545233	0.682412
C	0.000000	-1.450135	0.000000
S	-1.322686	-2.321334	-0.764076
C	2.192440	-1.934439	1.265537
H	2.768365	-2.819799	1.597559
H	1.967653	-1.326210	2.166534
H	2.860032	-1.325374	0.620843
H	-1.131925	-4.815326	-0.655262
C	0.000000	0.000000	0.000000
C	0.285976	0.794723	1.113020
C	0.757308	2.103412	0.820578
H	0.154498	0.429575	2.142881
C	0.841565	2.336821	-0.563588
S	0.328498	0.913334	-1.464748
C	1.118059	3.105040	1.882380
H	0.966197	2.683616	2.894974
H	0.500773	4.024668	1.808137
H	2.180000	3.419766	1.808230
H	1.166129	3.238200	-1.097114
$end

$rem
JOBTYPE		SP
EXCHANGE	HF
CORRELATION	pRIMP2
BASIS		cc-pvtz
METHOD		rimp2
AUX_BASIS	rimp2-cc-pvtz
SOLVENT_METHOD	PCM
PURECART	11111
SYMMETRY	false
MEM_TOTAL	110000
SCF_CONVERGENCE = 6
THRESH=10
GUI = 2
$end

$solvent
dielectric 4.90
$end
--------------------------------------------------------------

             Standard Nuclear Orientation (Angstroms)
    I     Atom           X                Y                Z
 ----------------------------------------------------------------
    1      C      -0.6268550000    -3.8878000000    -0.3631760000
    2      C       0.5730740000    -3.7014560000     0.3296690000
    3      C       0.9400160000    -2.3451700000     0.5422500000
    4      H       1.1848370000    -4.5452330000     0.6824120000
    5      C       0.0000000000    -1.4501350000     0.0000000000
    6      S      -1.3226860000    -2.3213340000    -0.7640760000
    7      C       2.1924400000    -1.9344390000     1.2655370000
    8      H       2.7683650000    -2.8197990000     1.5975590000
    9      H       1.9676530000    -1.3262100000     2.1665340000
   10      H       2.8600320000    -1.3253740000     0.6208430000
   11      H      -1.1319250000    -4.8153260000    -0.6552620000
   12      C       0.0000000000     0.0000000000     0.0000000000
   13      C       0.2859760000     0.7947230000     1.1130200000
   14      C       0.7573080000     2.1034120000     0.8205780000
   15      H       0.1544980000     0.4295750000     2.1428810000
   16      C       0.8415650000     2.3368210000    -0.5635880000
   17      S       0.3284980000     0.9133340000    -1.4647480000
   18      C       1.1180590000     3.1050400000     1.8823800000
   19      H       0.9661970000     2.6836160000     2.8949740000
   20      H       0.5007730000     4.0246680000     1.8081370000
   21      H       2.1800000000     3.4197660000     1.8082300000
   22      H       1.1661290000     3.2382000000    -1.0971140000
 ----------------------------------------------------------------

   10   -1179.6793090238      5.39e-07  Convergence criterion met
 Total energy in the final basis set =    -1179.6793090238
        RIMP2         total energy =     -1181.6598222473 a.u.

                    Orbital Energies (a.u.)
 --------------------------------------------------------------

 Alpha MOs
 -- Occupied --
-91.9852 -91.9835 -11.2767 -11.2744 -11.2721 -11.2674 -11.2532 -11.2516
-11.2430 -11.2423 -11.2296 -11.2286  -8.9848  -8.9833  -6.6657  -6.6651
 -6.6645  -6.6642  -6.6636  -6.6630  -1.1790  -1.1494  -1.0399  -1.0230
 -0.9962  -0.9546  -0.9129  -0.8927  -0.7993  -0.7524  -0.7314  -0.6967
 -0.6610  -0.6163  -0.5844  -0.5800  -0.5709  -0.5657  -0.5510  -0.5335
 -0.5284  -0.5212  -0.5082  -0.4920  -0.4841  -0.4662  -0.4600  -0.3448
 -0.3407  -0.3365  -0.2895

          Ground-State Mulliken Net Atomic Charges

     Atom                 Charge (a.u.)
  ----------------------------------------
      1 C                    -0.211091
      2 C                    -0.252280
      3 C                     0.064577
      4 H                     0.185021
      5 C                    -0.037577
      6 S                     0.021487
      7 C                    -0.282717
      8 H                     0.111144
      9 H                     0.108017
     10 H                     0.115291
     11 H                     0.204223
     12 C                    -0.032414
     13 C                    -0.255885
     14 C                     0.035310
     15 H                     0.191605
     16 C                    -0.239332
     17 S                     0.026385
     18 C                    -0.270079
     19 H                     0.102541
     20 H                     0.108708
     21 H                     0.107958
     22 H                     0.199108
  ----------------------------------------
  Sum of atomic charges =     0.000000

                    Cartesian Multipole Moments
 -----------------------------------------------------------------
    Charge (ESU x 10^10)
                -0.0000
    Dipole Moment (Debye)
         X       2.0312      Y       0.3144      Z       2.2890
       Tot       3.0764
    Quadrupole Moments (Debye-Ang)
        XX     -86.5978     XY       1.5931     YY     -70.1030
        XZ       3.2119     YZ      -0.0939     ZZ     -85.0729

 Total job time:  64.14s(wall), 1742.65s(cpu)
        *  Thank you very much for using Q-Chem.  Have a nice day.  *
