 Q-Chem 5.4, Q-Chem, Inc., Pleasanton, CA (2021)
 Q-Chem 5.4.0 for Intel X86 EM64T Linux

User input:
--------------------------------------------------------------
$molecule
0 1
C	-0.681143	-3.887800	0.246754
C	0.620906	-3.701456	-0.227093
C	1.019618	-2.345170	-0.371543
H	1.284357	-4.545233	-0.468992
C	0.000000	-1.450135	0.000000
S	-1.435522	-2.321334	0.522097
C	2.378731	-1.934439	-0.866035
H	3.003272	-2.819799	-1.093799
H	2.924444	-1.326210	-0.114688
H	2.313987	-1.325374	-1.791841
H	-1.229547	-4.815326	0.445911
C	0.000000	0.000000	0.000000
C	0.143630	0.832309	1.113020
C	0.380550	2.202961	0.820578
H	0.077556	0.449877	2.142881
C	0.422995	2.447456	-0.563588
S	0.164909	0.956502	-1.464748
C	0.561888	3.252016	1.882380
H	0.485513	2.810624	2.894974
H	-0.205711	4.050482	1.808137
H	1.553045	3.746365	1.808230
H	0.586105	3.391501	-1.097114
$end

$rem
JOBTYPE		SP
EXCHANGE	HF
CORRELATION	pRIMP2
BASIS		cc-pvtz
METHOD		rimp2
AUX_BASIS	rimp2-cc-pvtz
SOLVENT_METHOD	PCM
PURECART	11111
SYMMETRY	false
MEM_TOTAL	110000
SCF_CONVERGENCE = 6
THRESH=10
GUI = 2
$end

$solvent
dielectric 4.90
$end
--------------------------------------------------------------

             Standard Nuclear Orientation (Angstroms)
    I     Atom           X                Y                Z
 ----------------------------------------------------------------
    1      C      -0.6811430000    -3.8878000000     0.2467540000
    2      C       0.6209060000    -3.7014560000    -0.2270930000
    3      C       1.0196180000    -2.3451700000    -0.3715430000
    4      H       1.2843570000    -4.5452330000    -0.4689920000
    5      C       0.0000000000    -1.4501350000     0.0000000000
    6      S      -1.4355220000    -2.3213340000     0.5220970000
    7      C       2.3787310000    -1.9344390000    -0.8660350000
    8      H       3.0032720000    -2.8197990000    -1.0937990000
    9      H       2.9244440000    -1.3262100000    -0.1146880000
   10      H       2.3139870000    -1.3253740000    -1.7918410000
   11      H      -1.2295470000    -4.8153260000     0.4459110000
   12      C       0.0000000000     0.0000000000     0.0000000000
   13      C       0.1436300000     0.8323090000     1.1130200000
   14      C       0.3805500000     2.2029610000     0.8205780000
   15      H       0.0775560000     0.4498770000     2.1428810000
   16      C       0.4229950000     2.4474560000    -0.5635880000
   17      S       0.1649090000     0.9565020000    -1.4647480000
   18      C       0.5618880000     3.2520160000     1.8823800000
   19      H       0.4855130000     2.8106240000     2.8949740000
   20      H      -0.2057110000     4.0504820000     1.8081370000
   21      H       1.5530450000     3.7463650000     1.8082300000
   22      H       0.5861050000     3.3915010000    -1.0971140000
 ----------------------------------------------------------------

   10   -1179.6841994166      5.07e-07  Convergence criterion met
 Total energy in the final basis set =    -1179.6841994166
        RIMP2         total energy =     -1181.6627745667 a.u.

                    Orbital Energies (a.u.)
 --------------------------------------------------------------

 Alpha MOs
 -- Occupied --
-91.9856 -91.9852 -11.2792 -11.2744 -11.2720 -11.2657 -11.2529 -11.2512
-11.2424 -11.2423 -11.2292 -11.2284  -8.9850  -8.9847  -6.6659  -6.6656
 -6.6654  -6.6650  -6.6648  -6.6644  -1.1782  -1.1496  -1.0396  -1.0222
 -0.9975  -0.9537  -0.9134  -0.8925  -0.7993  -0.7563  -0.7277  -0.6948
 -0.6618  -0.6166  -0.5821  -0.5785  -0.5725  -0.5695  -0.5514  -0.5314
 -0.5279  -0.5193  -0.5086  -0.4931  -0.4872  -0.4654  -0.4606  -0.3446
 -0.3426  -0.3278  -0.2959

          Ground-State Mulliken Net Atomic Charges

     Atom                 Charge (a.u.)
  ----------------------------------------
      1 C                    -0.216251
      2 C                    -0.248843
      3 C                     0.045120
      4 H                     0.185262
      5 C                    -0.033239
      6 S                     0.027077
      7 C                    -0.284036
      8 H                     0.108769
      9 H                     0.111697
     10 H                     0.110870
     11 H                     0.204009
     12 C                    -0.024014
     13 C                    -0.228176
     14 C                     0.019008
     15 H                     0.186493
     16 C                    -0.236151
     17 S                     0.025857
     18 C                    -0.270902
     19 H                     0.102931
     20 H                     0.108336
     21 H                     0.107880
     22 H                     0.198305
  ----------------------------------------
  Sum of atomic charges =     0.000000

                    Cartesian Multipole Moments
 -----------------------------------------------------------------
    Charge (ESU x 10^10)
                -0.0000
    Dipole Moment (Debye)
         X       1.7560      Y       0.3089      Z       0.9397
       Tot       2.0155
    Quadrupole Moments (Debye-Ang)
        XX     -86.6592     XY      -0.2581     YY     -69.2580
        XZ      -1.9644     YZ       1.9052     ZZ     -85.9103

 Total job time:  71.99s(wall), 2977.73s(cpu)
        *  Thank you very much for using Q-Chem.  Have a nice day.  *
