 Q-Chem 5.4, Q-Chem, Inc., Pleasanton, CA (2021)
 Q-Chem 5.4.0 for Intel X86 EM64T Linux

User input:
--------------------------------------------------------------
$molecule
0 1
C	-0.361285	-3.887800	-0.627947
C	0.331462	-3.701456	0.572038
C	0.542953	-2.345170	0.939610
H	0.684893	-4.545233	1.183405
C	0.000000	-1.450135	0.000000
S	-0.763441	-2.321334	-1.323052
C	1.265941	-1.934439	2.192207
H	1.598695	-2.819799	2.767709
H	0.620770	-1.326210	2.860100
H	2.166438	-1.325374	1.967682
H	-0.652645	-4.815326	-1.133436
C	0.000000	0.000000	0.000000
C	0.354153	0.766774	1.113020
C	0.937751	2.029404	0.820578
H	0.191350	0.414475	2.142881
C	1.042030	2.254581	-0.563588
S	0.406851	0.881228	-1.464748
C	1.384426	2.995779	1.882380
H	1.196413	2.589194	2.894974
H	0.849641	3.965707	1.808137
H	2.469756	3.216753	1.808230
H	1.443919	3.124243	-1.097114
$end

$rem
JOBTYPE		SP
EXCHANGE	HF
CORRELATION	pRIMP2
BASIS		cc-pvtz
METHOD		rimp2
AUX_BASIS	rimp2-cc-pvtz
SOLVENT_METHOD	PCM
PURECART	11111
SYMMETRY	false
MEM_TOTAL	110000
SCF_CONVERGENCE = 6
THRESH=10
GUI = 2
$end

$solvent
dielectric 4.90
$end
--------------------------------------------------------------

             Standard Nuclear Orientation (Angstroms)
    I     Atom           X                Y                Z
 ----------------------------------------------------------------
    1      C      -0.3612850000    -3.8878000000    -0.6279470000
    2      C       0.3314620000    -3.7014560000     0.5720380000
    3      C       0.5429530000    -2.3451700000     0.9396100000
    4      H       0.6848930000    -4.5452330000     1.1834050000
    5      C       0.0000000000    -1.4501350000     0.0000000000
    6      S      -0.7634410000    -2.3213340000    -1.3230520000
    7      C       1.2659410000    -1.9344390000     2.1922070000
    8      H       1.5986950000    -2.8197990000     2.7677090000
    9      H       0.6207700000    -1.3262100000     2.8601000000
   10      H       2.1664380000    -1.3253740000     1.9676820000
   11      H      -0.6526450000    -4.8153260000    -1.1334360000
   12      C       0.0000000000     0.0000000000     0.0000000000
   13      C       0.3541530000     0.7667740000     1.1130200000
   14      C       0.9377510000     2.0294040000     0.8205780000
   15      H       0.1913500000     0.4144750000     2.1428810000
   16      C       1.0420300000     2.2545810000    -0.5635880000
   17      S       0.4068510000     0.8812280000    -1.4647480000
   18      C       1.3844260000     2.9957790000     1.8823800000
   19      H       1.1964130000     2.5891940000     2.8949740000
   20      H       0.8496410000     3.9657070000     1.8081370000
   21      H       2.4697560000     3.2167530000     1.8082300000
   22      H       1.4439190000     3.1242430000    -1.0971140000
 ----------------------------------------------------------------

   10   -1179.6727773521      5.16e-07  Convergence criterion met
 Total energy in the final basis set =    -1179.6727773521
        RIMP2         total energy =     -1181.6558754017 a.u.

                    Orbital Energies (a.u.)
 --------------------------------------------------------------

 Alpha MOs
 -- Occupied --
-91.9849 -91.9833 -11.2783 -11.2774 -11.2714 -11.2683 -11.2524 -11.2519
-11.2430 -11.2427 -11.2299 -11.2297  -8.9847  -8.9832  -6.6656  -6.6651
 -6.6644  -6.6642  -6.6636  -6.6630  -1.1812  -1.1497  -1.0412  -1.0257
 -0.9957  -0.9549  -0.9141  -0.8941  -0.8000  -0.7549  -0.7292  -0.7006
 -0.6601  -0.6154  -0.5910  -0.5814  -0.5708  -0.5620  -0.5503  -0.5390
 -0.5287  -0.5227  -0.5053  -0.4922  -0.4826  -0.4716  -0.4547  -0.3607
 -0.3446  -0.3392  -0.2735

          Ground-State Mulliken Net Atomic Charges

     Atom                 Charge (a.u.)
  ----------------------------------------
      1 C                    -0.213033
      2 C                    -0.250287
      3 C                     0.061333
      4 H                     0.185251
      5 C                    -0.034319
      6 S                     0.012367
      7 C                    -0.304557
      8 H                     0.115849
      9 H                     0.104031
     10 H                     0.118497
     11 H                     0.205369
     12 C                     0.013984
     13 C                    -0.291837
     14 C                     0.053986
     15 H                     0.194800
     16 C                    -0.247488
     17 S                     0.026664
     18 C                    -0.269448
     19 H                     0.102233
     20 H                     0.109062
     21 H                     0.108603
     22 H                     0.198939
  ----------------------------------------
  Sum of atomic charges =     0.000000

                    Cartesian Multipole Moments
 -----------------------------------------------------------------
    Charge (ESU x 10^10)
                -0.0000
    Dipole Moment (Debye)
         X       1.6503      Y       0.3366      Z       2.8708
       Tot       3.3284
    Quadrupole Moments (Debye-Ang)
        XX     -89.0849     XY       3.1587     YY     -70.8147
        XZ       3.3247     YZ      -0.9686     ZZ     -81.8160

 Total job time:  63.50s(wall), 2372.34s(cpu)
        *  Thank you very much for using Q-Chem.  Have a nice day.  *
