 Q-Chem 5.4, Q-Chem, Inc., Pleasanton, CA (2021)
 Q-Chem 5.4.0 for Intel X86 EM64T Linux

User input:
--------------------------------------------------------------
$molecule
0 1
C	0.554267	-3.887800	0.466510
C	-0.507121	-3.701456	-0.424173
C	-0.831575	-2.345170	-0.697244
H	-1.048337	-4.545233	-0.877789
C	0.000000	-1.450135	0.000000
S	1.169911	-2.321334	0.982150
C	-1.939374	-1.934439	-1.627024
H	-2.448894	-2.819799	-2.054010
H	-1.561545	-1.326210	-2.475299
H	-2.708773	-1.325374	-1.108051
H	1.000944	-4.815326	0.841863
C	0.000000	0.000000	0.000000
C	-0.003081	0.844605	1.113020
C	-0.007772	2.235575	0.820578
H	-0.001743	0.456510	2.142881
C	-0.008427	2.483726	-0.563588
S	-0.003691	0.970607	-1.464748
C	-0.011355	3.300181	1.882380
H	-0.009922	2.852233	2.894974
H	-0.905944	3.953225	1.808137
H	0.878901	3.959133	1.808230
H	-0.011727	3.441752	-1.097114
$end

$rem
JOBTYPE		SP
EXCHANGE	HF
CORRELATION	pRIMP2
BASIS		cc-pvtz
METHOD		rimp2
AUX_BASIS	rimp2-cc-pvtz
SOLVENT_METHOD	PCM
PURECART	11111
SYMMETRY	false
MEM_TOTAL	110000
SCF_CONVERGENCE = 6
THRESH=10
GUI = 2
$end

$solvent
dielectric 4.90
$end
--------------------------------------------------------------

             Standard Nuclear Orientation (Angstroms)
    I     Atom           X                Y                Z
 ----------------------------------------------------------------
    1      C       0.5542670000    -3.8878000000     0.4665100000
    2      C      -0.5071210000    -3.7014560000    -0.4241730000
    3      C      -0.8315750000    -2.3451700000    -0.6972440000
    4      H      -1.0483370000    -4.5452330000    -0.8777890000
    5      C       0.0000000000    -1.4501350000     0.0000000000
    6      S       1.1699110000    -2.3213340000     0.9821500000
    7      C      -1.9393740000    -1.9344390000    -1.6270240000
    8      H      -2.4488940000    -2.8197990000    -2.0540100000
    9      H      -1.5615450000    -1.3262100000    -2.4752990000
   10      H      -2.7087730000    -1.3253740000    -1.1080510000
   11      H       1.0009440000    -4.8153260000     0.8418630000
   12      C       0.0000000000     0.0000000000     0.0000000000
   13      C      -0.0030810000     0.8446050000     1.1130200000
   14      C      -0.0077720000     2.2355750000     0.8205780000
   15      H      -0.0017430000     0.4565100000     2.1428810000
   16      C      -0.0084270000     2.4837260000    -0.5635880000
   17      S      -0.0036910000     0.9706070000    -1.4647480000
   18      C      -0.0113550000     3.3001810000     1.8823800000
   19      H      -0.0099220000     2.8522330000     2.8949740000
   20      H      -0.9059440000     3.9532250000     1.8081370000
   21      H       0.8789010000     3.9591330000     1.8082300000
   22      H      -0.0117270000     3.4417520000    -1.0971140000
 ----------------------------------------------------------------

   10   -1179.6869450082      5.17e-07  Convergence criterion met
 Total energy in the final basis set =    -1179.6869450082
        RIMP2         total energy =     -1181.6652524141 a.u.

                    Orbital Energies (a.u.)
 --------------------------------------------------------------

 Alpha MOs
 -- Occupied --
-91.9864 -91.9855 -11.2816 -11.2758 -11.2726 -11.2645 -11.2529 -11.2514
-11.2429 -11.2409 -11.2290 -11.2289  -8.9859  -8.9851  -6.6667  -6.6662
 -6.6660  -6.6656  -6.6655  -6.6648  -1.1789  -1.1499  -1.0400  -1.0233
 -0.9981  -0.9531  -0.9141  -0.8932  -0.7997  -0.7599  -0.7242  -0.6946
 -0.6624  -0.6164  -0.5829  -0.5780  -0.5746  -0.5696  -0.5518  -0.5327
 -0.5264  -0.5192  -0.5083  -0.4952  -0.4888  -0.4673  -0.4583  -0.3513
 -0.3431  -0.3377  -0.2832

          Ground-State Mulliken Net Atomic Charges

     Atom                 Charge (a.u.)
  ----------------------------------------
      1 C                    -0.214884
      2 C                    -0.248586
      3 C                     0.030311
      4 H                     0.185536
      5 C                    -0.028536
      6 S                     0.023584
      7 C                    -0.293914
      8 H                     0.110164
      9 H                     0.111926
     10 H                     0.114689
     11 H                     0.204615
     12 C                     0.014383
     13 C                    -0.245984
     14 C                     0.021090
     15 H                     0.187192
     16 C                    -0.241230
     17 S                     0.022822
     18 C                    -0.271353
     19 H                     0.103065
     20 H                     0.108059
     21 H                     0.108400
     22 H                     0.198651
  ----------------------------------------
  Sum of atomic charges =     0.000000

                    Cartesian Multipole Moments
 -----------------------------------------------------------------
    Charge (ESU x 10^10)
                -0.0000
    Dipole Moment (Debye)
         X      -1.1705      Y       0.2128      Z       0.4603
       Tot       1.2756
    Quadrupole Moments (Debye-Ang)
        XX     -88.8800     XY       1.6595     YY     -68.7434
        XZ       3.3308     YZ       2.5680     ZZ     -83.9105

 Total job time:  63.33s(wall), 1796.06s(cpu)
        *  Thank you very much for using Q-Chem.  Have a nice day.  *
