 Q-Chem 5.4, Q-Chem, Inc., Pleasanton, CA (2021)
 Q-Chem 5.4.0 for Intel X86 EM64T Linux

User input:
--------------------------------------------------------------
$molecule
0 1
C	-0.554267	-3.887800	-0.466510
C	0.507121	-3.701456	0.424173
C	0.831575	-2.345170	0.697244
H	1.048337	-4.545233	0.877789
C	0.000000	-1.450135	0.000000
S	-1.169911	-2.321334	-0.982150
C	1.939374	-1.934439	1.627024
H	2.448894	-2.819799	2.054010
H	1.561545	-1.326210	2.475299
H	2.708773	-1.325374	1.108051
H	-1.000944	-4.815326	-0.841863
C	0.000000	0.000000	0.000000
C	0.419634	0.732990	1.113020
C	1.111057	1.939951	0.820578
H	0.226746	0.396221	2.142881
C	1.234565	2.155183	-0.563588
S	0.482106	0.842416	-1.464748
C	1.640257	2.863718	1.882380
H	1.417524	2.475067	2.894974
H	1.192042	3.876565	1.808137
H	2.740717	2.989259	1.808230
H	1.710720	2.986508	-1.097114
$end

$rem
JOBTYPE		SP
EXCHANGE	HF
CORRELATION	pRIMP2
BASIS		cc-pvtz
METHOD		rimp2
AUX_BASIS	rimp2-cc-pvtz
SOLVENT_METHOD	PCM
PURECART	11111
SYMMETRY	false
MEM_TOTAL	110000
SCF_CONVERGENCE = 6
THRESH=10
GUI = 2
$end

$solvent
dielectric 4.90
$end
--------------------------------------------------------------

             Standard Nuclear Orientation (Angstroms)
    I     Atom           X                Y                Z
 ----------------------------------------------------------------
    1      C      -0.5542670000    -3.8878000000    -0.4665100000
    2      C       0.5071210000    -3.7014560000     0.4241730000
    3      C       0.8315750000    -2.3451700000     0.6972440000
    4      H       1.0483370000    -4.5452330000     0.8777890000
    5      C       0.0000000000    -1.4501350000     0.0000000000
    6      S      -1.1699110000    -2.3213340000    -0.9821500000
    7      C       1.9393740000    -1.9344390000     1.6270240000
    8      H       2.4488940000    -2.8197990000     2.0540100000
    9      H       1.5615450000    -1.3262100000     2.4752990000
   10      H       2.7087730000    -1.3253740000     1.1080510000
   11      H      -1.0009440000    -4.8153260000    -0.8418630000
   12      C       0.0000000000     0.0000000000     0.0000000000
   13      C       0.4196340000     0.7329900000     1.1130200000
   14      C       1.1110570000     1.9399510000     0.8205780000
   15      H       0.2267460000     0.3962210000     2.1428810000
   16      C       1.2345650000     2.1551830000    -0.5635880000
   17      S       0.4821060000     0.8424160000    -1.4647480000
   18      C       1.6402570000     2.8637180000     1.8823800000
   19      H       1.4175240000     2.4750670000     2.8949740000
   20      H       1.1920420000     3.8765650000     1.8081370000
   21      H       2.7407170000     2.9892590000     1.8082300000
   22      H       1.7107200000     2.9865080000    -1.0971140000
 ----------------------------------------------------------------

   10   -1179.6692646873      5.83e-07  Convergence criterion met
 Total energy in the final basis set =    -1179.6692646873
        RIMP2         total energy =     -1181.6530216321 a.u.

                    Orbital Energies (a.u.)
 --------------------------------------------------------------

 Alpha MOs
 -- Occupied --
-91.9845 -91.9818 -11.2752 -11.2733 -11.2707 -11.2706 -11.2522 -11.2512
-11.2455 -11.2418 -11.2301 -11.2281  -8.9842  -8.9817  -6.6651  -6.6645
 -6.6639  -6.6626  -6.6620  -6.6615  -1.1805  -1.1490  -1.0408  -1.0231
 -0.9960  -0.9543  -0.9131  -0.8928  -0.7984  -0.7527  -0.7318  -0.6981
 -0.6596  -0.6163  -0.5872  -0.5804  -0.5710  -0.5635  -0.5502  -0.5359
 -0.5277  -0.5223  -0.5080  -0.4914  -0.4800  -0.4669  -0.4580  -0.3476
 -0.3419  -0.3398  -0.2824

          Ground-State Mulliken Net Atomic Charges

     Atom                 Charge (a.u.)
  ----------------------------------------
      1 C                    -0.210980
      2 C                    -0.253529
      3 C                     0.059852
      4 H                     0.185023
      5 C                    -0.028493
      6 S                     0.014086
      7 C                    -0.290190
      8 H                     0.113579
      9 H                     0.106360
     10 H                     0.116618
     11 H                     0.204055
     12 C                    -0.034277
     13 C                    -0.265686
     14 C                     0.045982
     15 H                     0.191764
     16 C                    -0.234084
     17 S                     0.029617
     18 C                    -0.269053
     19 H                     0.102522
     20 H                     0.109329
     21 H                     0.107825
     22 H                     0.199682
  ----------------------------------------
  Sum of atomic charges =     0.000000

                    Cartesian Multipole Moments
 -----------------------------------------------------------------
    Charge (ESU x 10^10)
                -0.0000
    Dipole Moment (Debye)
         X       2.2969      Y       0.4420      Z       2.5648
       Tot       3.4712
    Quadrupole Moments (Debye-Ang)
        XX     -86.1578     XY       3.1781     YY     -71.8832
        XZ       3.6949     YZ      -0.5362     ZZ     -83.9807

 Total job time:  48.08s(wall), 1686.01s(cpu)
        *  Thank you very much for using Q-Chem.  Have a nice day.  *
