 Q-Chem 5.4, Q-Chem, Inc., Pleasanton, CA (2021)
 Q-Chem 5.4.0 for Intel X86 EM64T Linux

User input:
--------------------------------------------------------------
$molecule
0 1
C	0.248806	-3.887800	-0.680396
C	-0.225147	-3.701456	0.621614
C	-0.370780	-2.345170	1.019896
H	-0.466300	-4.545233	1.285337
C	0.000000	-1.450135	0.000000
S	0.522786	-2.321334	-1.435271
C	-0.865597	-1.934439	2.378891
H	-1.092567	-2.819799	3.003720
H	-1.791940	-1.326210	2.313975
H	-0.114772	-1.325374	2.924390
H	0.448750	-4.815326	-1.228514
C	0.000000	0.000000	0.000000
C	0.285976	0.794723	1.113020
C	0.757308	2.103412	0.820578
H	0.154498	0.429575	2.142881
C	0.841565	2.336821	-0.563588
S	0.328498	0.913334	-1.464748
C	1.118059	3.105040	1.882380
H	0.966197	2.683616	2.894974
H	0.500773	4.024668	1.808137
H	2.180000	3.419766	1.808230
H	1.166129	3.238200	-1.097114
$end

$rem
JOBTYPE		SP
EXCHANGE	HF
CORRELATION	pRIMP2
BASIS		cc-pvtz
METHOD		rimp2
AUX_BASIS	rimp2-cc-pvtz
SOLVENT_METHOD	PCM
PURECART	11111
SYMMETRY	false
MEM_TOTAL	110000
SCF_CONVERGENCE = 6
THRESH=10
GUI = 2
$end

$solvent
dielectric 4.90
$end
--------------------------------------------------------------

             Standard Nuclear Orientation (Angstroms)
    I     Atom           X                Y                Z
 ----------------------------------------------------------------
    1      C       0.2488060000    -3.8878000000    -0.6803960000
    2      C      -0.2251470000    -3.7014560000     0.6216140000
    3      C      -0.3707800000    -2.3451700000     1.0198960000
    4      H      -0.4663000000    -4.5452330000     1.2853370000
    5      C       0.0000000000    -1.4501350000     0.0000000000
    6      S       0.5227860000    -2.3213340000    -1.4352710000
    7      C      -0.8655970000    -1.9344390000     2.3788910000
    8      H      -1.0925670000    -2.8197990000     3.0037200000
    9      H      -1.7919400000    -1.3262100000     2.3139750000
   10      H      -0.1147720000    -1.3253740000     2.9243900000
   11      H       0.4487500000    -4.8153260000    -1.2285140000
   12      C       0.0000000000     0.0000000000     0.0000000000
   13      C       0.2859760000     0.7947230000     1.1130200000
   14      C       0.7573080000     2.1034120000     0.8205780000
   15      H       0.1544980000     0.4295750000     2.1428810000
   16      C       0.8415650000     2.3368210000    -0.5635880000
   17      S       0.3284980000     0.9133340000    -1.4647480000
   18      C       1.1180590000     3.1050400000     1.8823800000
   19      H       0.9661970000     2.6836160000     2.8949740000
   20      H       0.5007730000     4.0246680000     1.8081370000
   21      H       2.1800000000     3.4197660000     1.8082300000
   22      H       1.1661290000     3.2382000000    -1.0971140000
 ----------------------------------------------------------------

   10   -1179.6775644432      4.78e-07  Convergence criterion met
 Total energy in the final basis set =    -1179.6775644432
        RIMP2         total energy =     -1181.6593281468 a.u.

                    Orbital Energies (a.u.)
 --------------------------------------------------------------

 Alpha MOs
 -- Occupied --
-91.9865 -91.9853 -11.2821 -11.2792 -11.2701 -11.2674 -11.2531 -11.2503
-11.2433 -11.2426 -11.2307 -11.2299  -8.9862  -8.9850  -6.6672  -6.6666
 -6.6660  -6.6660  -6.6654  -6.6648  -1.1816  -1.1502  -1.0418  -1.0263
 -0.9959  -0.9562  -0.9137  -0.8949  -0.8020  -0.7553  -0.7284  -0.7004
 -0.6610  -0.6151  -0.5915  -0.5820  -0.5705  -0.5625  -0.5514  -0.5398
 -0.5306  -0.5219  -0.5046  -0.4913  -0.4862  -0.4766  -0.4521  -0.3681
 -0.3462  -0.3377  -0.2701

          Ground-State Mulliken Net Atomic Charges

     Atom                 Charge (a.u.)
  ----------------------------------------
      1 C                    -0.221041
      2 C                    -0.248617
      3 C                     0.053364
      4 H                     0.184836
      5 C                    -0.037934
      6 S                     0.011661
      7 C                    -0.312458
      8 H                     0.116367
      9 H                     0.116989
     10 H                     0.103191
     11 H                     0.205683
     12 C                     0.015807
     13 C                    -0.219297
     14 C                     0.016467
     15 H                     0.194210
     16 C                    -0.234327
     17 S                     0.005988
     18 C                    -0.270827
     19 H                     0.101515
     20 H                     0.108839
     21 H                     0.108798
     22 H                     0.200786
  ----------------------------------------
  Sum of atomic charges =     0.000000

                    Cartesian Multipole Moments
 -----------------------------------------------------------------
    Charge (ESU x 10^10)
                -0.0000
    Dipole Moment (Debye)
         X       0.1887      Y       0.4097      Z       2.8771
       Tot       2.9122
    Quadrupole Moments (Debye-Ang)
        XX     -90.6823     XY       4.3776     YY     -70.1842
        XZ      -1.7297     YZ      -1.1204     ZZ     -80.8365

 Total job time:  51.23s(wall), 1774.22s(cpu)
        *  Thank you very much for using Q-Chem.  Have a nice day.  *
