 Q-Chem 5.4, Q-Chem, Inc., Pleasanton, CA (2021)
 Q-Chem 5.4.0 for Intel X86 EM64T Linux

User input:
--------------------------------------------------------------
$molecule
0 1
C	0.680396	-3.887800	0.248806
C	-0.621614	-3.701456	-0.225147
C	-1.019896	-2.345170	-0.370780
H	-1.285337	-4.545233	-0.466300
C	-0.000000	-1.450135	-0.000000
S	1.435271	-2.321334	0.522786
C	-2.378891	-1.934439	-0.865597
H	-3.003720	-2.819799	-1.092567
H	-2.313975	-1.326210	-1.791940
H	-2.924390	-1.325374	-0.114772
H	1.228514	-4.815326	0.448750
C	0.000000	0.000000	0.000000
C	0.540541	0.648986	1.113020
C	1.431046	1.717546	0.820578
H	0.292104	0.350827	2.142881
C	1.590053	1.908061	-0.563588
S	0.621066	0.745901	-1.464748
C	2.112618	2.535384	1.882380
H	1.825779	2.191315	2.894974
H	1.847090	3.610676	1.808137
H	3.218159	2.467925	1.808230
H	2.203332	2.644073	-1.097114
$end

$rem
JOBTYPE		SP
EXCHANGE	HF
CORRELATION	pRIMP2
BASIS		cc-pvtz
METHOD		rimp2
AUX_BASIS	rimp2-cc-pvtz
SOLVENT_METHOD	PCM
PURECART	11111
SYMMETRY	false
MEM_TOTAL	110000
SCF_CONVERGENCE = 6
THRESH=10
GUI = 2
$end

$solvent
dielectric 4.90
$end
--------------------------------------------------------------

             Standard Nuclear Orientation (Angstroms)
    I     Atom           X                Y                Z
 ----------------------------------------------------------------
    1      C       0.6803960000    -3.8878000000     0.2488060000
    2      C      -0.6216140000    -3.7014560000    -0.2251470000
    3      C      -1.0198960000    -2.3451700000    -0.3707800000
    4      H      -1.2853370000    -4.5452330000    -0.4663000000
    5      C       0.0000000000    -1.4501350000     0.0000000000
    6      S       1.4352710000    -2.3213340000     0.5227860000
    7      C      -2.3788910000    -1.9344390000    -0.8655970000
    8      H      -3.0037200000    -2.8197990000    -1.0925670000
    9      H      -2.3139750000    -1.3262100000    -1.7919400000
   10      H      -2.9243900000    -1.3253740000    -0.1147720000
   11      H       1.2285140000    -4.8153260000     0.4487500000
   12      C       0.0000000000     0.0000000000     0.0000000000
   13      C       0.5405410000     0.6489860000     1.1130200000
   14      C       1.4310460000     1.7175460000     0.8205780000
   15      H       0.2921040000     0.3508270000     2.1428810000
   16      C       1.5900530000     1.9080610000    -0.5635880000
   17      S       0.6210660000     0.7459010000    -1.4647480000
   18      C       2.1126180000     2.5353840000     1.8823800000
   19      H       1.8257790000     2.1913150000     2.8949740000
   20      H       1.8470900000     3.6106760000     1.8081370000
   21      H       3.2181590000     2.4679250000     1.8082300000
   22      H       2.2033320000     2.6440730000    -1.0971140000
 ----------------------------------------------------------------

   10   -1179.6579332592      5.50e-07  Convergence criterion met
 Total energy in the final basis set =    -1179.6579332592
        RIMP2         total energy =     -1181.6425311031 a.u.

                    Orbital Energies (a.u.)
 --------------------------------------------------------------

 Alpha MOs
 -- Occupied --
-91.9836 -91.9820 -11.2758 -11.2711 -11.2688 -11.2666 -11.2524 -11.2501
-11.2461 -11.2393 -11.2299 -11.2274  -8.9835  -8.9816  -6.6644  -6.6637
 -6.6632  -6.6625  -6.6620  -6.6613  -1.1816  -1.1479  -1.0411  -1.0203
 -0.9983  -0.9510  -0.9131  -0.8914  -0.7972  -0.7552  -0.7307  -0.6906
 -0.6593  -0.6183  -0.5830  -0.5800  -0.5707  -0.5691  -0.5498  -0.5331
 -0.5278  -0.5170  -0.5083  -0.4920  -0.4746  -0.4651  -0.4615  -0.3500
 -0.3349  -0.3269  -0.2935

          Ground-State Mulliken Net Atomic Charges

     Atom                 Charge (a.u.)
  ----------------------------------------
      1 C                    -0.214155
      2 C                    -0.252385
      3 C                     0.049612
      4 H                     0.182838
      5 C                    -0.046361
      6 S                     0.022296
      7 C                    -0.287057
      8 H                     0.107242
      9 H                     0.108638
     10 H                     0.110275
     11 H                     0.203201
     12 C                    -0.022974
     13 C                    -0.267518
     14 C                     0.049143
     15 H                     0.188912
     16 C                    -0.217395
     17 S                     0.033360
     18 C                    -0.266571
     19 H                     0.103182
     20 H                     0.107859
     21 H                     0.107771
     22 H                     0.200087
  ----------------------------------------
  Sum of atomic charges =     0.000000

                    Cartesian Multipole Moments
 -----------------------------------------------------------------
    Charge (ESU x 10^10)
                -0.0000
    Dipole Moment (Debye)
         X       0.2046      Y       0.5582      Z       1.0515
       Tot       1.2079
    Quadrupole Moments (Debye-Ang)
        XX     -82.2767     XY       7.9325     YY     -74.0887
        XZ       2.6872     YZ       1.6135     ZZ     -85.6474

 Total job time:  55.02s(wall), 1882.96s(cpu)
        *  Thank you very much for using Q-Chem.  Have a nice day.  *
