 Q-Chem 5.4, Q-Chem, Inc., Pleasanton, CA (2021)
 Q-Chem 5.4.0 for Intel X86 EM64T Linux

User input:
--------------------------------------------------------------
$molecule
0 1
C	0.724460	-3.887800	0.001092
C	-0.661131	-3.701456	0.001036
C	-1.085203	-2.345170	0.000406
H	-1.367305	-4.545233	0.001433
C	0.000000	-1.450135	0.000000
S	1.527517	-2.321334	0.000367
C	-2.531478	-1.934439	0.000233
H	-3.196254	-2.819799	0.000656
H	-2.787305	-1.326210	-0.892447
H	-2.787282	-1.325374	0.892350
H	1.307907	-4.815326	0.001511
C	0.000000	0.000000	0.000000
C	0.354153	0.766774	1.113020
C	0.937751	2.029404	0.820578
H	0.191350	0.414475	2.142881
C	1.042030	2.254581	-0.563588
S	0.406851	0.881228	-1.464748
C	1.384426	2.995779	1.882380
H	1.196413	2.589194	2.894974
H	0.849641	3.965707	1.808137
H	2.469756	3.216753	1.808230
H	1.443919	3.124243	-1.097114
$end

$rem
JOBTYPE		SP
EXCHANGE	HF
CORRELATION	pRIMP2
BASIS		cc-pvtz
METHOD		rimp2
AUX_BASIS	rimp2-cc-pvtz
SOLVENT_METHOD	PCM
PURECART	11111
SYMMETRY	false
MEM_TOTAL	110000
SCF_CONVERGENCE = 6
THRESH=10
GUI = 2
$end

$solvent
dielectric 4.90
$end
--------------------------------------------------------------

             Standard Nuclear Orientation (Angstroms)
    I     Atom           X                Y                Z
 ----------------------------------------------------------------
    1      C       0.7244600000    -3.8878000000     0.0010920000
    2      C      -0.6611310000    -3.7014560000     0.0010360000
    3      C      -1.0852030000    -2.3451700000     0.0004060000
    4      H      -1.3673050000    -4.5452330000     0.0014330000
    5      C       0.0000000000    -1.4501350000     0.0000000000
    6      S       1.5275170000    -2.3213340000     0.0003670000
    7      C      -2.5314780000    -1.9344390000     0.0002330000
    8      H      -3.1962540000    -2.8197990000     0.0006560000
    9      H      -2.7873050000    -1.3262100000    -0.8924470000
   10      H      -2.7872820000    -1.3253740000     0.8923500000
   11      H       1.3079070000    -4.8153260000     0.0015110000
   12      C       0.0000000000     0.0000000000     0.0000000000
   13      C       0.3541530000     0.7667740000     1.1130200000
   14      C       0.9377510000     2.0294040000     0.8205780000
   15      H       0.1913500000     0.4144750000     2.1428810000
   16      C       1.0420300000     2.2545810000    -0.5635880000
   17      S       0.4068510000     0.8812280000    -1.4647480000
   18      C       1.3844260000     2.9957790000     1.8823800000
   19      H       1.1964130000     2.5891940000     2.8949740000
   20      H       0.8496410000     3.9657070000     1.8081370000
   21      H       2.4697560000     3.2167530000     1.8082300000
   22      H       1.4439190000     3.1242430000    -1.0971140000
 ----------------------------------------------------------------

   10   -1179.6746507118      5.09e-07  Convergence criterion met
 Total energy in the final basis set =    -1179.6746507118
        RIMP2         total energy =     -1181.6545822724 a.u.

                    Orbital Energies (a.u.)
 --------------------------------------------------------------

 Alpha MOs
 -- Occupied --
-91.9846 -91.9838 -11.2740 -11.2718 -11.2715 -11.2690 -11.2512 -11.2506
-11.2450 -11.2406 -11.2293 -11.2285  -8.9842  -8.9834  -6.6651  -6.6645
 -6.6642  -6.6640  -6.6637  -6.6631  -1.1787  -1.1490  -1.0396  -1.0218
 -0.9967  -0.9531  -0.9126  -0.8921  -0.7989  -0.7525  -0.7312  -0.6931
 -0.6610  -0.6170  -0.5827  -0.5792  -0.5701  -0.5690  -0.5508  -0.5315
 -0.5291  -0.5185  -0.5078  -0.4918  -0.4826  -0.4641  -0.4633  -0.3497
 -0.3350  -0.3126  -0.3096

          Ground-State Mulliken Net Atomic Charges

     Atom                 Charge (a.u.)
  ----------------------------------------
      1 C                    -0.205243
      2 C                    -0.254148
      3 C                     0.061645
      4 H                     0.183588
      5 C                    -0.066413
      6 S                     0.026904
      7 C                    -0.284885
      8 H                     0.106632
      9 H                     0.110545
     10 H                     0.109332
     11 H                     0.203869
     12 C                    -0.012173
     13 C                    -0.234781
     14 C                     0.030055
     15 H                     0.183701
     16 C                    -0.232489
     17 S                     0.026055
     18 C                    -0.269446
     19 H                     0.102922
     20 H                     0.107734
     21 H                     0.107961
     22 H                     0.198634
  ----------------------------------------
  Sum of atomic charges =     0.000000

                    Cartesian Multipole Moments
 -----------------------------------------------------------------
    Charge (ESU x 10^10)
                -0.0000
    Dipole Moment (Debye)
         X      -0.6003      Y       0.3830      Z       1.5170
       Tot       1.6758
    Quadrupole Moments (Debye-Ang)
        XX     -84.2175     XY       6.4987     YY     -70.9812
        XZ       0.4843     YZ       0.9890     ZZ     -86.6055

 Total job time:  51.91s(wall), 1804.21s(cpu)
        *  Thank you very much for using Q-Chem.  Have a nice day.  *
