 Q-Chem 5.4, Q-Chem, Inc., Pleasanton, CA (2021)
 Q-Chem 5.4.0 for Intel X86 EM64T Linux

User input:
--------------------------------------------------------------
$molecule
0 1
C	-0.464838	-3.887800	-0.555670
C	0.425760	-3.701456	0.505790
C	0.697866	-2.345170	0.831053
H	0.879984	-4.545233	1.046496
C	0.000000	-1.450135	0.000000
S	-0.981588	-2.321334	-1.170382
C	1.627381	-1.934439	1.939074
H	2.055015	-2.819799	2.448051
H	1.107991	-1.326210	2.708853
H	2.475210	-1.325374	1.561590
H	-0.839549	-4.815326	-1.002886
C	0.000000	0.000000	0.000000
C	0.143630	0.832309	1.113020
C	0.380550	2.202961	0.820578
H	0.077556	0.449877	2.142881
C	0.422995	2.447456	-0.563588
S	0.164909	0.956502	-1.464748
C	0.561888	3.252016	1.882380
H	0.485513	2.810624	2.894974
H	-0.205711	4.050482	1.808137
H	1.553045	3.746365	1.808230
H	0.586105	3.391501	-1.097114
$end

$rem
JOBTYPE		SP
EXCHANGE	HF
CORRELATION	pRIMP2
BASIS		cc-pvtz
METHOD		rimp2
AUX_BASIS	rimp2-cc-pvtz
SOLVENT_METHOD	PCM
PURECART	11111
SYMMETRY	false
MEM_TOTAL	110000
SCF_CONVERGENCE = 6
THRESH=10
GUI = 2
$end

$solvent
dielectric 4.90
$end
--------------------------------------------------------------

             Standard Nuclear Orientation (Angstroms)
    I     Atom           X                Y                Z
 ----------------------------------------------------------------
    1      C      -0.4648380000    -3.8878000000    -0.5556700000
    2      C       0.4257600000    -3.7014560000     0.5057900000
    3      C       0.6978660000    -2.3451700000     0.8310530000
    4      H       0.8799840000    -4.5452330000     1.0464960000
    5      C       0.0000000000    -1.4501350000     0.0000000000
    6      S      -0.9815880000    -2.3213340000    -1.1703820000
    7      C       1.6273810000    -1.9344390000     1.9390740000
    8      H       2.0550150000    -2.8197990000     2.4480510000
    9      H       1.1079910000    -1.3262100000     2.7088530000
   10      H       2.4752100000    -1.3253740000     1.5615900000
   11      H      -0.8395490000    -4.8153260000    -1.0028860000
   12      C       0.0000000000     0.0000000000     0.0000000000
   13      C       0.1436300000     0.8323090000     1.1130200000
   14      C       0.3805500000     2.2029610000     0.8205780000
   15      H       0.0775560000     0.4498770000     2.1428810000
   16      C       0.4229950000     2.4474560000    -0.5635880000
   17      S       0.1649090000     0.9565020000    -1.4647480000
   18      C       0.5618880000     3.2520160000     1.8823800000
   19      H       0.4855130000     2.8106240000     2.8949740000
   20      H      -0.2057110000     4.0504820000     1.8081370000
   21      H       1.5530450000     3.7463650000     1.8082300000
   22      H       0.5861050000     3.3915010000    -1.0971140000
 ----------------------------------------------------------------

   10   -1179.6845742407      5.23e-07  Convergence criterion met
 Total energy in the final basis set =    -1179.6845742407
        RIMP2         total energy =     -1181.6640203857 a.u.

                    Orbital Energies (a.u.)
 --------------------------------------------------------------

 Alpha MOs
 -- Occupied --
-91.9860 -91.9854 -11.2814 -11.2770 -11.2730 -11.2648 -11.2539 -11.2520
-11.2436 -11.2404 -11.2297 -11.2295  -8.9855  -8.9851  -6.6664  -6.6660
 -6.6659  -6.6655  -6.6653  -6.6649  -1.1797  -1.1501  -1.0404  -1.0253
 -0.9960  -0.9554  -0.9136  -0.8938  -0.8011  -0.7544  -0.7293  -0.6986
 -0.6617  -0.6156  -0.5878  -0.5808  -0.5704  -0.5636  -0.5512  -0.5368
 -0.5293  -0.5218  -0.5058  -0.4925  -0.4873  -0.4711  -0.4572  -0.3564
 -0.3432  -0.3399  -0.2784

          Ground-State Mulliken Net Atomic Charges

     Atom                 Charge (a.u.)
  ----------------------------------------
      1 C                    -0.212670
      2 C                    -0.249784
      3 C                     0.055294
      4 H                     0.185313
      5 C                    -0.035129
      6 S                     0.018255
      7 C                    -0.293556
      8 H                     0.113557
      9 H                     0.105901
     10 H                     0.116339
     11 H                     0.205276
     12 C                     0.004190
     13 C                    -0.258719
     14 C                     0.032549
     15 H                     0.192237
     16 C                    -0.248379
     17 S                     0.022039
     18 C                    -0.271168
     19 H                     0.102138
     20 H                     0.108878
     21 H                     0.108582
     22 H                     0.198857
  ----------------------------------------
  Sum of atomic charges =     0.000000

                    Cartesian Multipole Moments
 -----------------------------------------------------------------
    Charge (ESU x 10^10)
                -0.0000
    Dipole Moment (Debye)
         X       1.3062      Y       0.1868      Z       2.6518
       Tot       2.9619
    Quadrupole Moments (Debye-Ang)
        XX     -89.7048     XY       0.4383     YY     -68.8097
        XZ       3.4659     YZ      -0.5840     ZZ     -82.8879

 Total job time:  53.81s(wall), 1819.57s(cpu)
        *  Thank you very much for using Q-Chem.  Have a nice day.  *
