 Q-Chem 5.4, Q-Chem, Inc., Pleasanton, CA (2021)
 Q-Chem 5.4.0 for Intel X86 EM64T Linux

User input:
--------------------------------------------------------------
$molecule
0 1
C	-0.626855	-3.887800	-0.363176
C	0.573074	-3.701456	0.329669
C	0.940016	-2.345170	0.542250
H	1.184837	-4.545233	0.682412
C	0.000000	-1.450135	0.000000
S	-1.322686	-2.321334	-0.764076
C	2.192440	-1.934439	1.265537
H	2.768365	-2.819799	1.597559
H	1.967653	-1.326210	2.166534
H	2.860032	-1.325374	0.620843
H	-1.131925	-4.815326	-0.655262
C	0.000000	0.000000	0.000000
C	0.729909	0.424971	1.113020
C	1.932179	1.124518	0.820578
H	0.394478	0.229765	2.142881
C	2.146756	1.249161	-0.563588
S	0.838724	0.488500	-1.464748
C	2.852364	1.659924	1.882380
H	2.465145	1.434710	2.894974
H	2.970621	2.761183	1.808137
H	3.868160	1.218416	1.808230
H	2.974781	1.731032	-1.097114
$end

$rem
JOBTYPE		SP
EXCHANGE	HF
CORRELATION	pRIMP2
BASIS		cc-pvtz
METHOD		rimp2
AUX_BASIS	rimp2-cc-pvtz
SOLVENT_METHOD	PCM
PURECART	11111
SYMMETRY	false
MEM_TOTAL	110000
SCF_CONVERGENCE = 6
THRESH=10
GUI = 2
$end

$solvent
dielectric 4.90
$end
--------------------------------------------------------------

             Standard Nuclear Orientation (Angstroms)
    I     Atom           X                Y                Z
 ----------------------------------------------------------------
    1      C      -0.6268550000    -3.8878000000    -0.3631760000
    2      C       0.5730740000    -3.7014560000     0.3296690000
    3      C       0.9400160000    -2.3451700000     0.5422500000
    4      H       1.1848370000    -4.5452330000     0.6824120000
    5      C       0.0000000000    -1.4501350000     0.0000000000
    6      S      -1.3226860000    -2.3213340000    -0.7640760000
    7      C       2.1924400000    -1.9344390000     1.2655370000
    8      H       2.7683650000    -2.8197990000     1.5975590000
    9      H       1.9676530000    -1.3262100000     2.1665340000
   10      H       2.8600320000    -1.3253740000     0.6208430000
   11      H      -1.1319250000    -4.8153260000    -0.6552620000
   12      C       0.0000000000     0.0000000000     0.0000000000
   13      C       0.7299090000     0.4249710000     1.1130200000
   14      C       1.9321790000     1.1245180000     0.8205780000
   15      H       0.3944780000     0.2297650000     2.1428810000
   16      C       2.1467560000     1.2491610000    -0.5635880000
   17      S       0.8387240000     0.4885000000    -1.4647480000
   18      C       2.8523640000     1.6599240000     1.8823800000
   19      H       2.4651450000     1.4347100000     2.8949740000
   20      H       2.9706210000     2.7611830000     1.8081370000
   21      H       3.8681600000     1.2184160000     1.8082300000
   22      H       2.9747810000     1.7310320000    -1.0971140000
 ----------------------------------------------------------------

   11   -1179.6114588656      4.66e-07  Convergence criterion met
 Total energy in the final basis set =    -1179.6114588656
        RIMP2         total energy =     -1181.6102055730 a.u.

                    Orbital Energies (a.u.)
 --------------------------------------------------------------

 Alpha MOs
 -- Occupied --
-91.9823 -91.9739 -11.2891 -11.2748 -11.2648 -11.2628 -11.2530 -11.2509
-11.2415 -11.2378 -11.2324 -11.2251  -8.9828  -8.9741  -6.6636  -6.6628
 -6.6624  -6.6551  -6.6545  -6.6539  -1.1912  -1.1451  -1.0457  -1.0214
 -0.9981  -0.9519  -0.9145  -0.8905  -0.7940  -0.7511  -0.7406  -0.6985
 -0.6539  -0.6209  -0.5898  -0.5857  -0.5685  -0.5658  -0.5487  -0.5377
 -0.5261  -0.5234  -0.5110  -0.4874  -0.4695  -0.4610  -0.4483  -0.3491
 -0.3379  -0.3323  -0.2814

          Ground-State Mulliken Net Atomic Charges

     Atom                 Charge (a.u.)
  ----------------------------------------
      1 C                    -0.220323
      2 C                    -0.264385
      3 C                     0.041127
      4 H                     0.183132
      5 C                     0.017042
      6 S                    -0.004374
      7 C                    -0.321975
      8 H                     0.117980
      9 H                     0.109206
     10 H                     0.119080
     11 H                     0.200025
     12 C                    -0.179182
     13 C                    -0.100587
     14 C                    -0.026387
     15 H                     0.193348
     16 C                    -0.169154
     17 S                     0.041405
     18 C                    -0.275780
     19 H                     0.106535
     20 H                     0.122385
     21 H                     0.107106
     22 H                     0.203774
  ----------------------------------------
  Sum of atomic charges =     0.000000

                    Cartesian Multipole Moments
 -----------------------------------------------------------------
    Charge (ESU x 10^10)
                -0.0000
    Dipole Moment (Debye)
         X       4.2417      Y       0.7808      Z       2.5525
       Tot       5.0117
    Quadrupole Moments (Debye-Ang)
        XX     -78.5199     XY       3.4998     YY     -80.0414
        XZ       3.2117     YZ      -0.5964     ZZ     -84.4804

 Total job time:  58.36s(wall), 1987.71s(cpu)
        *  Thank you very much for using Q-Chem.  Have a nice day.  *
