 Q-Chem 5.4, Q-Chem, Inc., Pleasanton, CA (2021)
 Q-Chem 5.4.0 for Intel X86 EM64T Linux

User input:
--------------------------------------------------------------
$molecule
0 1
C	-0.124726	-3.887800	-0.713644
C	0.115824	-3.701456	0.650907
C	0.188844	-2.345170	1.068646
H	0.238841	-4.545233	1.346284
C	0.000000	-1.450135	0.000000
S	-0.264890	-2.321334	-1.504375
C	0.439816	-1.934439	2.492978
H	0.555669	-2.819799	3.147582
H	-0.394879	-1.326210	2.899931
H	1.362799	-1.325374	2.589982
H	-0.225628	-4.815326	-1.288299
C	0.000000	0.000000	0.000000
C	0.285976	0.794723	1.113020
C	0.757308	2.103412	0.820578
H	0.154498	0.429575	2.142881
C	0.841565	2.336821	-0.563588
S	0.328498	0.913334	-1.464748
C	1.118059	3.105040	1.882380
H	0.966197	2.683616	2.894974
H	0.500773	4.024668	1.808137
H	2.180000	3.419766	1.808230
H	1.166129	3.238200	-1.097114
$end

$rem
JOBTYPE		SP
EXCHANGE	HF
CORRELATION	pRIMP2
BASIS		cc-pvtz
METHOD		rimp2
AUX_BASIS	rimp2-cc-pvtz
SOLVENT_METHOD	PCM
PURECART	11111
SYMMETRY	false
MEM_TOTAL	110000
SCF_CONVERGENCE = 6
THRESH=10
GUI = 2
$end

$solvent
dielectric 4.90
$end
--------------------------------------------------------------

             Standard Nuclear Orientation (Angstroms)
    I     Atom           X                Y                Z
 ----------------------------------------------------------------
    1      C      -0.1247260000    -3.8878000000    -0.7136440000
    2      C       0.1158240000    -3.7014560000     0.6509070000
    3      C       0.1888440000    -2.3451700000     1.0686460000
    4      H       0.2388410000    -4.5452330000     1.3462840000
    5      C       0.0000000000    -1.4501350000     0.0000000000
    6      S      -0.2648900000    -2.3213340000    -1.5043750000
    7      C       0.4398160000    -1.9344390000     2.4929780000
    8      H       0.5556690000    -2.8197990000     3.1475820000
    9      H      -0.3948790000    -1.3262100000     2.8999310000
   10      H       1.3627990000    -1.3253740000     2.5899820000
   11      H      -0.2256280000    -4.8153260000    -1.2882990000
   12      C       0.0000000000     0.0000000000     0.0000000000
   13      C       0.2859760000     0.7947230000     1.1130200000
   14      C       0.7573080000     2.1034120000     0.8205780000
   15      H       0.1544980000     0.4295750000     2.1428810000
   16      C       0.8415650000     2.3368210000    -0.5635880000
   17      S       0.3284980000     0.9133340000    -1.4647480000
   18      C       1.1180590000     3.1050400000     1.8823800000
   19      H       0.9661970000     2.6836160000     2.8949740000
   20      H       0.5007730000     4.0246680000     1.8081370000
   21      H       2.1800000000     3.4197660000     1.8082300000
   22      H       1.1661290000     3.2382000000    -1.0971140000
 ----------------------------------------------------------------

   10   -1179.6766414204      4.81e-07  Convergence criterion met
 Total energy in the final basis set =    -1179.6766414204
        RIMP2         total energy =     -1181.6589661076 a.u.

                    Orbital Energies (a.u.)
 --------------------------------------------------------------

 Alpha MOs
 -- Occupied --
-91.9855 -91.9844 -11.2816 -11.2794 -11.2717 -11.2668 -11.2524 -11.2522
-11.2438 -11.2407 -11.2313 -11.2298  -8.9853  -8.9844  -6.6663  -6.6657
 -6.6654  -6.6651  -6.6648  -6.6642  -1.1817  -1.1501  -1.0416  -1.0276
 -0.9956  -0.9556  -0.9149  -0.8950  -0.8014  -0.7562  -0.7274  -0.7019
 -0.6608  -0.6147  -0.5923  -0.5824  -0.5704  -0.5627  -0.5511  -0.5405
 -0.5294  -0.5233  -0.5034  -0.4924  -0.4853  -0.4757  -0.4515  -0.3690
 -0.3474  -0.3375  -0.2692

          Ground-State Mulliken Net Atomic Charges

     Atom                 Charge (a.u.)
  ----------------------------------------
      1 C                    -0.215849
      2 C                    -0.249667
      3 C                     0.061531
      4 H                     0.185548
      5 C                    -0.041977
      6 S                     0.009780
      7 C                    -0.311671
      8 H                     0.118365
      9 H                     0.105625
     10 H                     0.113508
     11 H                     0.206383
     12 C                     0.038236
     13 C                    -0.271151
     14 C                     0.041410
     15 H                     0.196538
     16 C                    -0.251751
     17 S                     0.015762
     18 C                    -0.269678
     19 H                     0.101598
     20 H                     0.108710
     21 H                     0.108946
     22 H                     0.199805
  ----------------------------------------
  Sum of atomic charges =     0.000000

                    Cartesian Multipole Moments
 -----------------------------------------------------------------
    Charge (ESU x 10^10)
                -0.0000
    Dipole Moment (Debye)
         X       0.9483      Y       0.2644      Z       3.0066
       Tot       3.1637
    Quadrupole Moments (Debye-Ang)
        XX     -91.2632     XY       3.1649     YY     -69.9113
        XZ       1.5541     YZ      -1.2491     ZZ     -80.2499

 Total job time:  50.86s(wall), 1795.97s(cpu)
        *  Thank you very much for using Q-Chem.  Have a nice day.  *
