 Q-Chem 5.4, Q-Chem, Inc., Pleasanton, CA (2021)
 Q-Chem 5.4.0 for Intel X86 EM64T Linux

User input:
--------------------------------------------------------------
$molecule
0 1
C	0.554267	-3.887800	0.466510
C	-0.507121	-3.701456	-0.424173
C	-0.831575	-2.345170	-0.697244
H	-1.048337	-4.545233	-0.877789
C	-0.000000	-1.450135	-0.000000
S	1.169911	-2.321334	0.982150
C	-1.939374	-1.934439	-1.627024
H	-2.448894	-2.819799	-2.054010
H	-1.561545	-1.326210	-2.475299
H	-2.708773	-1.325374	-1.108051
H	1.000944	-4.815326	0.841863
C	0.000000	0.000000	0.000000
C	0.215623	0.816623	1.113020
C	0.571102	2.161411	0.820578
H	0.116470	0.441406	2.142881
C	0.634696	2.401276	-0.563588
S	0.247646	0.938489	-1.464748
C	0.843182	3.190669	1.882380
H	0.728628	2.757614	2.894974
H	0.148095	4.052998	1.808137
H	1.873652	3.596752	1.808230
H	0.879464	3.327513	-1.097114
$end

$rem
JOBTYPE		SP
EXCHANGE	HF
CORRELATION	pRIMP2
BASIS		cc-pvtz
METHOD		rimp2
AUX_BASIS	rimp2-cc-pvtz
SOLVENT_METHOD	PCM
PURECART	11111
SYMMETRY	false
MEM_TOTAL	110000
SCF_CONVERGENCE = 6
THRESH=10
GUI = 2
$end

$solvent
dielectric 4.90
$end
--------------------------------------------------------------

             Standard Nuclear Orientation (Angstroms)
    I     Atom           X                Y                Z
 ----------------------------------------------------------------
    1      C       0.5542670000    -3.8878000000     0.4665100000
    2      C      -0.5071210000    -3.7014560000    -0.4241730000
    3      C      -0.8315750000    -2.3451700000    -0.6972440000
    4      H      -1.0483370000    -4.5452330000    -0.8777890000
    5      C       0.0000000000    -1.4501350000     0.0000000000
    6      S       1.1699110000    -2.3213340000     0.9821500000
    7      C      -1.9393740000    -1.9344390000    -1.6270240000
    8      H      -2.4488940000    -2.8197990000    -2.0540100000
    9      H      -1.5615450000    -1.3262100000    -2.4752990000
   10      H      -2.7087730000    -1.3253740000    -1.1080510000
   11      H       1.0009440000    -4.8153260000     0.8418630000
   12      C       0.0000000000     0.0000000000     0.0000000000
   13      C       0.2156230000     0.8166230000     1.1130200000
   14      C       0.5711020000     2.1614110000     0.8205780000
   15      H       0.1164700000     0.4414060000     2.1428810000
   16      C       0.6346960000     2.4012760000    -0.5635880000
   17      S       0.2476460000     0.9384890000    -1.4647480000
   18      C       0.8431820000     3.1906690000     1.8823800000
   19      H       0.7286280000     2.7576140000     2.8949740000
   20      H       0.1480950000     4.0529980000     1.8081370000
   21      H       1.8736520000     3.5967520000     1.8082300000
   22      H       0.8794640000     3.3275130000    -1.0971140000
 ----------------------------------------------------------------

   10   -1179.6839240470      5.22e-07  Convergence criterion met
 Total energy in the final basis set =    -1179.6839240470
        RIMP2         total energy =     -1181.6628193509 a.u.

                    Orbital Energies (a.u.)
 --------------------------------------------------------------

 Alpha MOs
 -- Occupied --
-91.9863 -91.9854 -11.2799 -11.2748 -11.2722 -11.2659 -11.2519 -11.2517
-11.2425 -11.2417 -11.2294 -11.2291  -8.9857  -8.9849  -6.6666  -6.6661
 -6.6658  -6.6654  -6.6653  -6.6647  -1.1793  -1.1498  -1.0401  -1.0233
 -0.9982  -0.9525  -0.9144  -0.8930  -0.7995  -0.7598  -0.7245  -0.6936
 -0.6623  -0.6167  -0.5830  -0.5786  -0.5742  -0.5696  -0.5516  -0.5331
 -0.5260  -0.5190  -0.5077  -0.4954  -0.4876  -0.4674  -0.4588  -0.3486
 -0.3435  -0.3392  -0.2832

          Ground-State Mulliken Net Atomic Charges

     Atom                 Charge (a.u.)
  ----------------------------------------
      1 C                    -0.211981
      2 C                    -0.249401
      3 C                     0.034617
      4 H                     0.184976
      5 C                    -0.028083
      6 S                     0.024121
      7 C                    -0.291148
      8 H                     0.109377
      9 H                     0.110342
     10 H                     0.112799
     11 H                     0.204458
     12 C                     0.024179
     13 C                    -0.284255
     14 C                     0.041262
     15 H                     0.188037
     16 C                    -0.244428
     17 S                     0.027715
     18 C                    -0.270797
     19 H                     0.103068
     20 H                     0.108010
     21 H                     0.108768
     22 H                     0.198362
  ----------------------------------------
  Sum of atomic charges =     0.000000

                    Cartesian Multipole Moments
 -----------------------------------------------------------------
    Charge (ESU x 10^10)
                -0.0000
    Dipole Moment (Debye)
         X      -0.6538      Y       0.2394      Z       0.4942
       Tot       0.8538
    Quadrupole Moments (Debye-Ang)
        XX     -88.1227     XY       4.4507     YY     -69.4071
        XZ       3.6214     YZ       2.5346     ZZ     -83.9139

 Total job time:  52.07s(wall), 1768.20s(cpu)
        *  Thank you very much for using Q-Chem.  Have a nice day.  *
