 Q-Chem 5.4, Q-Chem, Inc., Pleasanton, CA (2021)
 Q-Chem 5.4.0 for Intel X86 EM64T Linux

User input:
--------------------------------------------------------------
$molecule
0 1
C	-0.363176	-3.887800	0.626855
C	0.329669	-3.701456	-0.573074
C	0.542250	-2.345170	-0.940016
H	0.682412	-4.545233	-1.184837
C	0.000000	-1.450135	0.000000
S	-0.764076	-2.321334	1.322686
C	1.265537	-1.934439	-2.192440
H	1.597559	-2.819799	-2.768365
H	2.166534	-1.326210	-1.967653
H	0.620843	-1.325374	-2.860032
H	-0.655262	-4.815326	1.131925
C	0.000000	0.000000	0.000000
C	0.143630	0.832309	1.113020
C	0.380550	2.202961	0.820578
H	0.077556	0.449877	2.142881
C	0.422995	2.447456	-0.563588
S	0.164909	0.956502	-1.464748
C	0.561888	3.252016	1.882380
H	0.485513	2.810624	2.894974
H	-0.205711	4.050482	1.808137
H	1.553045	3.746365	1.808230
H	0.586105	3.391501	-1.097114
$end

$rem
JOBTYPE		SP
EXCHANGE	HF
CORRELATION	pRIMP2
BASIS		cc-pvtz
METHOD		rimp2
AUX_BASIS	rimp2-cc-pvtz
SOLVENT_METHOD	PCM
PURECART	11111
SYMMETRY	false
MEM_TOTAL	110000
SCF_CONVERGENCE = 6
THRESH=10
GUI = 2
$end

$solvent
dielectric 4.90
$end
--------------------------------------------------------------

             Standard Nuclear Orientation (Angstroms)
    I     Atom           X                Y                Z
 ----------------------------------------------------------------
    1      C      -0.3631760000    -3.8878000000     0.6268550000
    2      C       0.3296690000    -3.7014560000    -0.5730740000
    3      C       0.5422500000    -2.3451700000    -0.9400160000
    4      H       0.6824120000    -4.5452330000    -1.1848370000
    5      C       0.0000000000    -1.4501350000     0.0000000000
    6      S      -0.7640760000    -2.3213340000     1.3226860000
    7      C       1.2655370000    -1.9344390000    -2.1924400000
    8      H       1.5975590000    -2.8197990000    -2.7683650000
    9      H       2.1665340000    -1.3262100000    -1.9676530000
   10      H       0.6208430000    -1.3253740000    -2.8600320000
   11      H      -0.6552620000    -4.8153260000     1.1319250000
   12      C       0.0000000000     0.0000000000     0.0000000000
   13      C       0.1436300000     0.8323090000     1.1130200000
   14      C       0.3805500000     2.2029610000     0.8205780000
   15      H       0.0775560000     0.4498770000     2.1428810000
   16      C       0.4229950000     2.4474560000    -0.5635880000
   17      S       0.1649090000     0.9565020000    -1.4647480000
   18      C       0.5618880000     3.2520160000     1.8823800000
   19      H       0.4855130000     2.8106240000     2.8949740000
   20      H      -0.2057110000     4.0504820000     1.8081370000
   21      H       1.5530450000     3.7463650000     1.8082300000
   22      H       0.5861050000     3.3915010000    -1.0971140000
 ----------------------------------------------------------------

   10   -1179.6836583886      5.13e-07  Convergence criterion met
 Total energy in the final basis set =    -1179.6836583886
        RIMP2         total energy =     -1181.6639645262 a.u.

                    Orbital Energies (a.u.)
 --------------------------------------------------------------

 Alpha MOs
 -- Occupied --
-91.9857 -91.9851 -11.2829 -11.2781 -11.2723 -11.2637 -11.2525 -11.2517
-11.2434 -11.2404 -11.2290 -11.2288  -8.9854  -8.9848  -6.6663  -6.6658
 -6.6657  -6.6652  -6.6651  -6.6645  -1.1802  -1.1499  -1.0410  -1.0241
 -0.9982  -0.9529  -0.9139  -0.8946  -0.7992  -0.7629  -0.7214  -0.6955
 -0.6623  -0.6162  -0.5834  -0.5786  -0.5773  -0.5697  -0.5520  -0.5329
 -0.5253  -0.5197  -0.5104  -0.4965  -0.4882  -0.4674  -0.4538  -0.3638
 -0.3429  -0.3389  -0.2734

          Ground-State Mulliken Net Atomic Charges

     Atom                 Charge (a.u.)
  ----------------------------------------
      1 C                    -0.214308
      2 C                    -0.250840
      3 C                     0.041388
      4 H                     0.185644
      5 C                    -0.031023
      6 S                     0.017416
      7 C                    -0.309210
      8 H                     0.112151
      9 H                     0.120613
     10 H                     0.111391
     11 H                     0.205489
     12 C                     0.028629
     13 C                    -0.241750
     14 C                     0.018700
     15 H                     0.181482
     16 C                    -0.241514
     17 S                     0.017837
     18 C                    -0.270825
     19 H                     0.102998
     20 H                     0.108390
     21 H                     0.108144
     22 H                     0.199196
  ----------------------------------------
  Sum of atomic charges =     0.000000

                    Cartesian Multipole Moments
 -----------------------------------------------------------------
    Charge (ESU x 10^10)
                -0.0000
    Dipole Moment (Debye)
         X       1.1090      Y       0.1876      Z       0.0659
       Tot       1.1267
    Quadrupole Moments (Debye-Ang)
        XX     -90.7756     XY       0.6953     YY     -69.2502
        XZ      -2.7728     YZ       3.0721     ZZ     -81.5581

 Total job time:  55.35s(wall), 1819.50s(cpu)
        *  Thank you very much for using Q-Chem.  Have a nice day.  *
