 Q-Chem 5.4, Q-Chem, Inc., Pleasanton, CA (2021)
 Q-Chem 5.4.0 for Intel X86 EM64T Linux

User input:
--------------------------------------------------------------
$molecule
0 1
C	0.464838	-3.887800	0.555670
C	-0.425760	-3.701456	-0.505790
C	-0.697866	-2.345170	-0.831053
H	-0.879984	-4.545233	-1.046496
C	0.000000	-1.450135	0.000000
S	0.981588	-2.321334	1.170382
C	-1.627381	-1.934439	-1.939074
H	-2.055015	-2.819799	-2.448051
H	-1.107991	-1.326210	-2.708853
H	-2.475210	-1.325374	-1.561590
H	0.839549	-4.815326	1.002886
C	0.000000	0.000000	0.000000
C	0.285976	0.794723	1.113020
C	0.757308	2.103412	0.820578
H	0.154498	0.429575	2.142881
C	0.841565	2.336821	-0.563588
S	0.328498	0.913334	-1.464748
C	1.118059	3.105040	1.882380
H	0.966197	2.683616	2.894974
H	0.500773	4.024668	1.808137
H	2.180000	3.419766	1.808230
H	1.166129	3.238200	-1.097114
$end

$rem
JOBTYPE		SP
EXCHANGE	HF
CORRELATION	pRIMP2
BASIS		cc-pvtz
METHOD		rimp2
AUX_BASIS	rimp2-cc-pvtz
SOLVENT_METHOD	PCM
PURECART	11111
SYMMETRY	false
MEM_TOTAL	110000
SCF_CONVERGENCE = 6
THRESH=10
GUI = 2
$end

$solvent
dielectric 4.90
$end
--------------------------------------------------------------

             Standard Nuclear Orientation (Angstroms)
    I     Atom           X                Y                Z
 ----------------------------------------------------------------
    1      C       0.4648380000    -3.8878000000     0.5556700000
    2      C      -0.4257600000    -3.7014560000    -0.5057900000
    3      C      -0.6978660000    -2.3451700000    -0.8310530000
    4      H      -0.8799840000    -4.5452330000    -1.0464960000
    5      C       0.0000000000    -1.4501350000     0.0000000000
    6      S       0.9815880000    -2.3213340000     1.1703820000
    7      C      -1.6273810000    -1.9344390000    -1.9390740000
    8      H      -2.0550150000    -2.8197990000    -2.4480510000
    9      H      -1.1079910000    -1.3262100000    -2.7088530000
   10      H      -2.4752100000    -1.3253740000    -1.5615900000
   11      H       0.8395490000    -4.8153260000     1.0028860000
   12      C       0.0000000000     0.0000000000     0.0000000000
   13      C       0.2859760000     0.7947230000     1.1130200000
   14      C       0.7573080000     2.1034120000     0.8205780000
   15      H       0.1544980000     0.4295750000     2.1428810000
   16      C       0.8415650000     2.3368210000    -0.5635880000
   17      S       0.3284980000     0.9133340000    -1.4647480000
   18      C       1.1180590000     3.1050400000     1.8823800000
   19      H       0.9661970000     2.6836160000     2.8949740000
   20      H       0.5007730000     4.0246680000     1.8081370000
   21      H       2.1800000000     3.4197660000     1.8082300000
   22      H       1.1661290000     3.2382000000    -1.0971140000
 ----------------------------------------------------------------

   10   -1179.6809762157      5.25e-07  Convergence criterion met
 Total energy in the final basis set =    -1179.6809762157
        RIMP2         total energy =     -1181.6611914382 a.u.

                    Orbital Energies (a.u.)
 --------------------------------------------------------------

 Alpha MOs
 -- Occupied --
-91.9859 -91.9854 -11.2798 -11.2756 -11.2715 -11.2668 -11.2522 -11.2509
-11.2424 -11.2423 -11.2296 -11.2293  -8.9854  -8.9851  -6.6663  -6.6659
 -6.6658  -6.6654  -6.6651  -6.6648  -1.1802  -1.1497  -1.0407  -1.0236
 -0.9987  -0.9521  -0.9146  -0.8934  -0.7993  -0.7616  -0.7233  -0.6935
 -0.6622  -0.6167  -0.5833  -0.5787  -0.5759  -0.5698  -0.5517  -0.5335
 -0.5255  -0.5190  -0.5083  -0.4963  -0.4868  -0.4680  -0.4571  -0.3547
 -0.3424  -0.3414  -0.2777

          Ground-State Mulliken Net Atomic Charges

     Atom                 Charge (a.u.)
  ----------------------------------------
      1 C                    -0.214219
      2 C                    -0.248853
      3 C                     0.035166
      4 H                     0.184857
      5 C                    -0.021219
      6 S                     0.021298
      7 C                    -0.299579
      8 H                     0.110748
      9 H                     0.111542
     10 H                     0.114416
     11 H                     0.204642
     12 C                     0.035556
     13 C                    -0.306011
     14 C                     0.052607
     15 H                     0.186732
     16 C                    -0.248961
     17 S                     0.032625
     18 C                    -0.269875
     19 H                     0.103227
     20 H                     0.108114
     21 H                     0.109020
     22 H                     0.198167
  ----------------------------------------
  Sum of atomic charges =     0.000000

                    Cartesian Multipole Moments
 -----------------------------------------------------------------
    Charge (ESU x 10^10)
                -0.0000
    Dipole Moment (Debye)
         X      -0.2923      Y       0.2793      Z       0.3161
       Tot       0.5132
    Quadrupole Moments (Debye-Ang)
        XX     -88.7108     XY       5.0394     YY     -70.0244
        XZ       3.7149     YZ       2.8112     ZZ     -82.7086

 Total job time:  50.32s(wall), 1759.18s(cpu)
        *  Thank you very much for using Q-Chem.  Have a nice day.  *
