 Q-Chem 5.4, Q-Chem, Inc., Pleasanton, CA (2021)
 Q-Chem 5.4.0 for Intel X86 EM64T Linux

User input:
--------------------------------------------------------------
$molecule
0 1
C	0.001092	-3.887800	-0.724460
C	0.001036	-3.701456	0.661131
C	0.000406	-2.345170	1.085203
H	0.001433	-4.545233	1.367305
C	0.000000	-1.450135	0.000000
S	0.000367	-2.321334	-1.527517
C	0.000233	-1.934439	2.531478
H	0.000656	-2.819799	3.196254
H	-0.892447	-1.326210	2.787305
H	0.892350	-1.325374	2.787282
H	0.001511	-4.815326	-1.307907
C	0.000000	0.000000	0.000000
C	0.354153	0.766774	1.113020
C	0.937751	2.029404	0.820578
H	0.191350	0.414475	2.142881
C	1.042030	2.254581	-0.563588
S	0.406851	0.881228	-1.464748
C	1.384426	2.995779	1.882380
H	1.196413	2.589194	2.894974
H	0.849641	3.965707	1.808137
H	2.469756	3.216753	1.808230
H	1.443919	3.124243	-1.097114
$end

$rem
JOBTYPE		SP
EXCHANGE	HF
CORRELATION	pRIMP2
BASIS		cc-pvtz
METHOD		rimp2
AUX_BASIS	rimp2-cc-pvtz
SOLVENT_METHOD	PCM
PURECART	11111
SYMMETRY	false
MEM_TOTAL	110000
SCF_CONVERGENCE = 6
THRESH=10
GUI = 2
$end

$solvent
dielectric 4.90
$end
--------------------------------------------------------------

             Standard Nuclear Orientation (Angstroms)
    I     Atom           X                Y                Z
 ----------------------------------------------------------------
    1      C       0.0010920000    -3.8878000000    -0.7244600000
    2      C       0.0010360000    -3.7014560000     0.6611310000
    3      C       0.0004060000    -2.3451700000     1.0852030000
    4      H       0.0014330000    -4.5452330000     1.3673050000
    5      C       0.0000000000    -1.4501350000     0.0000000000
    6      S       0.0003670000    -2.3213340000    -1.5275170000
    7      C       0.0002330000    -1.9344390000     2.5314780000
    8      H       0.0006560000    -2.8197990000     3.1962540000
    9      H      -0.8924470000    -1.3262100000     2.7873050000
   10      H       0.8923500000    -1.3253740000     2.7872820000
   11      H       0.0015110000    -4.8153260000    -1.3079070000
   12      C       0.0000000000     0.0000000000     0.0000000000
   13      C       0.3541530000     0.7667740000     1.1130200000
   14      C       0.9377510000     2.0294040000     0.8205780000
   15      H       0.1913500000     0.4144750000     2.1428810000
   16      C       1.0420300000     2.2545810000    -0.5635880000
   17      S       0.4068510000     0.8812280000    -1.4647480000
   18      C       1.3844260000     2.9957790000     1.8823800000
   19      H       1.1964130000     2.5891940000     2.8949740000
   20      H       0.8496410000     3.9657070000     1.8081370000
   21      H       2.4697560000     3.2167530000     1.8082300000
   22      H       1.4439190000     3.1242430000    -1.0971140000
 ----------------------------------------------------------------

   10   -1179.6717688940      4.83e-07  Convergence criterion met
 Total energy in the final basis set =    -1179.6717688940
        RIMP2         total energy =     -1181.6553816636 a.u.

                    Orbital Energies (a.u.)
 --------------------------------------------------------------

 Alpha MOs
 -- Occupied --
-91.9855 -91.9838 -11.2806 -11.2794 -11.2700 -11.2688 -11.2528 -11.2502
-11.2431 -11.2426 -11.2310 -11.2300  -8.9854  -8.9838  -6.6664  -6.6658
 -6.6652  -6.6647  -6.6642  -6.6635  -1.1823  -1.1499  -1.0421  -1.0272
 -0.9955  -0.9557  -0.9145  -0.8951  -0.8013  -0.7560  -0.7276  -0.7020
 -0.6602  -0.6147  -0.5929  -0.5826  -0.5705  -0.5623  -0.5511  -0.5408
 -0.5299  -0.5229  -0.5033  -0.4917  -0.4843  -0.4764  -0.4502  -0.3703
 -0.3480  -0.3365  -0.2678

          Ground-State Mulliken Net Atomic Charges

     Atom                 Charge (a.u.)
  ----------------------------------------
      1 C                    -0.220953
      2 C                    -0.247839
      3 C                     0.055946
      4 H                     0.185164
      5 C                    -0.039080
      6 S                     0.007810
      7 C                    -0.312206
      8 H                     0.118408
      9 H                     0.109237
     10 H                     0.106683
     11 H                     0.205886
     12 C                     0.029238
     13 C                    -0.246940
     14 C                     0.031539
     15 H                     0.195305
     16 C                    -0.241708
     17 S                     0.012859
     18 C                    -0.269347
     19 H                     0.101570
     20 H                     0.108884
     21 H                     0.108742
     22 H                     0.200803
  ----------------------------------------
  Sum of atomic charges =     0.000000

                    Cartesian Multipole Moments
 -----------------------------------------------------------------
    Charge (ESU x 10^10)
                -0.0000
    Dipole Moment (Debye)
         X       0.8934      Y       0.4262      Z       3.0241
       Tot       3.1820
    Quadrupole Moments (Debye-Ang)
        XX     -90.7331     XY       4.3251     YY     -70.9862
        XZ       0.4846     YZ      -1.3614     ZZ     -80.0449

 Total job time:  52.18s(wall), 1780.41s(cpu)
        *  Thank you very much for using Q-Chem.  Have a nice day.  *
