 Q-Chem 5.4, Q-Chem, Inc., Pleasanton, CA (2021)
 Q-Chem 5.4.0 for Intel X86 EM64T Linux

User input:
--------------------------------------------------------------
$molecule
0 1
C	-0.555670	-3.887800	0.464838
C	0.505790	-3.701456	-0.425760
C	0.831053	-2.345170	-0.697866
H	1.046496	-4.545233	-0.879984
C	-0.000000	-1.450135	-0.000000
S	-1.170382	-2.321334	0.981588
C	1.939074	-1.934439	-1.627381
H	2.448051	-2.819799	-2.055015
H	2.708853	-1.326210	-1.107991
H	1.561590	-1.325374	-2.475210
H	-1.002886	-4.815326	0.839549
C	0.000000	0.000000	0.000000
C	0.540541	0.648986	1.113020
C	1.431046	1.717546	0.820578
H	0.292104	0.350827	2.142881
C	1.590053	1.908061	-0.563588
S	0.621066	0.745901	-1.464748
C	2.112618	2.535384	1.882380
H	1.825779	2.191315	2.894974
H	1.847090	3.610676	1.808137
H	3.218159	2.467925	1.808230
H	2.203332	2.644073	-1.097114
$end

$rem
JOBTYPE		SP
EXCHANGE	HF
CORRELATION	pRIMP2
BASIS		cc-pvtz
METHOD		rimp2
AUX_BASIS	rimp2-cc-pvtz
SOLVENT_METHOD	PCM
PURECART	11111
SYMMETRY	false
MEM_TOTAL	110000
SCF_CONVERGENCE = 6
THRESH=10
GUI = 2
$end

$solvent
dielectric 4.90
$end
--------------------------------------------------------------

             Standard Nuclear Orientation (Angstroms)
    I     Atom           X                Y                Z
 ----------------------------------------------------------------
    1      C      -0.5556700000    -3.8878000000     0.4648380000
    2      C       0.5057900000    -3.7014560000    -0.4257600000
    3      C       0.8310530000    -2.3451700000    -0.6978660000
    4      H       1.0464960000    -4.5452330000    -0.8799840000
    5      C       0.0000000000    -1.4501350000     0.0000000000
    6      S      -1.1703820000    -2.3213340000     0.9815880000
    7      C       1.9390740000    -1.9344390000    -1.6273810000
    8      H       2.4480510000    -2.8197990000    -2.0550150000
    9      H       2.7088530000    -1.3262100000    -1.1079910000
   10      H       1.5615900000    -1.3253740000    -2.4752100000
   11      H      -1.0028860000    -4.8153260000     0.8395490000
   12      C       0.0000000000     0.0000000000     0.0000000000
   13      C       0.5405410000     0.6489860000     1.1130200000
   14      C       1.4310460000     1.7175460000     0.8205780000
   15      H       0.2921040000     0.3508270000     2.1428810000
   16      C       1.5900530000     1.9080610000    -0.5635880000
   17      S       0.6210660000     0.7459010000    -1.4647480000
   18      C       2.1126180000     2.5353840000     1.8823800000
   19      H       1.8257790000     2.1913150000     2.8949740000
   20      H       1.8470900000     3.6106760000     1.8081370000
   21      H       3.2181590000     2.4679250000     1.8082300000
   22      H       2.2033320000     2.6440730000    -1.0971140000
 ----------------------------------------------------------------

   10   -1179.6471491415      7.22e-07  Convergence criterion met
 Total energy in the final basis set =    -1179.6471491415
        RIMP2         total energy =     -1181.6370202019 a.u.

                    Orbital Energies (a.u.)
 --------------------------------------------------------------

 Alpha MOs
 -- Occupied --
-91.9826 -91.9798 -11.2773 -11.2760 -11.2697 -11.2647 -11.2529 -11.2517
-11.2438 -11.2399 -11.2303 -11.2225  -8.9830  -8.9797  -6.6638  -6.6632
 -6.6627  -6.6606  -6.6601  -6.6595  -1.1829  -1.1474  -1.0428  -1.0191
 -0.9981  -0.9528  -0.9108  -0.8933  -0.7952  -0.7590  -0.7275  -0.6951
 -0.6572  -0.6177  -0.5828  -0.5804  -0.5746  -0.5687  -0.5495  -0.5337
 -0.5261  -0.5204  -0.5115  -0.4935  -0.4728  -0.4619  -0.4528  -0.3572
 -0.3391  -0.3318  -0.2775

          Ground-State Mulliken Net Atomic Charges

     Atom                 Charge (a.u.)
  ----------------------------------------
      1 C                    -0.222010
      2 C                    -0.255216
      3 C                     0.038831
      4 H                     0.184645
      5 C                    -0.014605
      6 S                     0.004696
      7 C                    -0.292713
      8 H                     0.105639
      9 H                     0.115480
     10 H                     0.114506
     11 H                     0.201824
     12 C                    -0.071453
     13 C                    -0.168526
     14 C                     0.000780
     15 H                     0.188384
     16 C                    -0.207736
     17 S                     0.027677
     18 C                    -0.267580
     19 H                     0.103227
     20 H                     0.107783
     21 H                     0.106618
     22 H                     0.199748
  ----------------------------------------
  Sum of atomic charges =     0.000000

                    Cartesian Multipole Moments
 -----------------------------------------------------------------
    Charge (ESU x 10^10)
                -0.0000
    Dipole Moment (Debye)
         X       2.8431      Y       0.9113      Z       0.4618
       Tot       3.0211
    Quadrupole Moments (Debye-Ang)
        XX     -84.3607     XY       4.1739     YY     -75.7913
        XZ      -2.5718     YZ       2.2766     ZZ     -83.4864

 Total job time:  53.22s(wall), 1848.81s(cpu)
        *  Thank you very much for using Q-Chem.  Have a nice day.  *
