 Q-Chem 5.4, Q-Chem, Inc., Pleasanton, CA (2021)
 Q-Chem 5.4.0 for Intel X86 EM64T Linux

User input:
--------------------------------------------------------------
$molecule
0 1
C	0.001092	-3.887800	-0.724460
C	0.001036	-3.701456	0.661131
C	0.000406	-2.345170	1.085203
H	0.001433	-4.545233	1.367305
C	0.000000	-1.450135	0.000000
S	0.000367	-2.321334	-1.527517
C	0.000233	-1.934439	2.531478
H	0.000656	-2.819799	3.196254
H	-0.892447	-1.326210	2.787305
H	0.892350	-1.325374	2.787282
H	0.001511	-4.815326	-1.307907
C	0.000000	0.000000	0.000000
C	0.645024	0.545262	1.113020
C	1.707554	1.442954	0.820578
H	0.348587	0.294774	2.142881
C	1.897227	1.602964	-0.563588
S	0.741155	0.626722	-1.464748
C	2.520787	2.130014	1.882380
H	2.178559	1.840981	2.894974
H	2.446016	3.235078	1.808137
H	3.597818	1.871604	1.808230
H	2.628997	2.221299	-1.097114
$end

$rem
JOBTYPE		SP
EXCHANGE	HF
CORRELATION	pRIMP2
BASIS		cc-pvtz
METHOD		rimp2
AUX_BASIS	rimp2-cc-pvtz
SOLVENT_METHOD	PCM
PURECART	11111
SYMMETRY	false
MEM_TOTAL	110000
SCF_CONVERGENCE = 6
THRESH=10
GUI = 2
$end

$solvent
dielectric 4.90
$end
--------------------------------------------------------------

             Standard Nuclear Orientation (Angstroms)
    I     Atom           X                Y                Z
 ----------------------------------------------------------------
    1      C       0.0010920000    -3.8878000000    -0.7244600000
    2      C       0.0010360000    -3.7014560000     0.6611310000
    3      C       0.0004060000    -2.3451700000     1.0852030000
    4      H       0.0014330000    -4.5452330000     1.3673050000
    5      C       0.0000000000    -1.4501350000     0.0000000000
    6      S       0.0003670000    -2.3213340000    -1.5275170000
    7      C       0.0002330000    -1.9344390000     2.5314780000
    8      H       0.0006560000    -2.8197990000     3.1962540000
    9      H      -0.8924470000    -1.3262100000     2.7873050000
   10      H       0.8923500000    -1.3253740000     2.7872820000
   11      H       0.0015110000    -4.8153260000    -1.3079070000
   12      C       0.0000000000     0.0000000000     0.0000000000
   13      C       0.6450240000     0.5452620000     1.1130200000
   14      C       1.7075540000     1.4429540000     0.8205780000
   15      H       0.3485870000     0.2947740000     2.1428810000
   16      C       1.8972270000     1.6029640000    -0.5635880000
   17      S       0.7411550000     0.6267220000    -1.4647480000
   18      C       2.5207870000     2.1300140000     1.8823800000
   19      H       2.1785590000     1.8409810000     2.8949740000
   20      H       2.4460160000     3.2350780000     1.8081370000
   21      H       3.5978180000     1.8716040000     1.8082300000
   22      H       2.6289970000     2.2212990000    -1.0971140000
 ----------------------------------------------------------------

   11   -1179.6294207197      5.32e-07  Convergence criterion met
 Total energy in the final basis set =    -1179.6294207197
        RIMP2         total energy =     -1181.6224498265 a.u.

                    Orbital Energies (a.u.)
 --------------------------------------------------------------

 Alpha MOs
 -- Occupied --
-91.9846 -91.9772 -11.2849 -11.2799 -11.2666 -11.2596 -11.2571 -11.2549
-11.2392 -11.2379 -11.2319 -11.2282  -8.9852  -8.9775  -6.6660  -6.6653
 -6.6648  -6.6584  -6.6578  -6.6572  -1.1887  -1.1468  -1.0456  -1.0256
 -0.9959  -0.9544  -0.9128  -0.8950  -0.7992  -0.7562  -0.7297  -0.7025
 -0.6549  -0.6167  -0.5980  -0.5836  -0.5708  -0.5592  -0.5498  -0.5425
 -0.5322  -0.5205  -0.5036  -0.4881  -0.4818  -0.4670  -0.4453  -0.3701
 -0.3498  -0.3308  -0.2631

          Ground-State Mulliken Net Atomic Charges

     Atom                 Charge (a.u.)
  ----------------------------------------
      1 C                    -0.243138
      2 C                    -0.245414
      3 C                     0.034358
      4 H                     0.182726
      5 C                    -0.022134
      6 S                    -0.000795
      7 C                    -0.301868
      8 H                     0.114621
      9 H                     0.106377
     10 H                     0.099864
     11 H                     0.201915
     12 C                    -0.059485
     13 C                    -0.161930
     14 C                    -0.000321
     15 H                     0.201128
     16 C                    -0.189497
     17 S                     0.028146
     18 C                    -0.269082
     19 H                     0.102202
     20 H                     0.110399
     21 H                     0.108210
     22 H                     0.203717
  ----------------------------------------
  Sum of atomic charges =     0.000000

                    Cartesian Multipole Moments
 -----------------------------------------------------------------
    Charge (ESU x 10^10)
                -0.0000
    Dipole Moment (Debye)
         X       2.3156      Y       1.2511      Z       3.0938
       Tot       4.0619
    Quadrupole Moments (Debye-Ang)
        XX     -85.1764     XY       6.2483     YY     -78.4481
        XZ       0.6458     YZ      -1.7991     ZZ     -80.0382

 Total job time:  56.16s(wall), 1960.71s(cpu)
        *  Thank you very much for using Q-Chem.  Have a nice day.  *
