 Q-Chem 5.4, Q-Chem, Inc., Pleasanton, CA (2021)
 Q-Chem 5.4.0 for Intel X86 EM64T Linux

User input:
--------------------------------------------------------------
$molecule
0 1
C	0.001092	-3.887800	-0.724460
C	0.001036	-3.701456	0.661131
C	0.000406	-2.345170	1.085203
H	0.001433	-4.545233	1.367305
C	0.000000	-1.450135	0.000000
S	0.000367	-2.321334	-1.527517
C	0.000233	-1.934439	2.531478
H	0.000656	-2.819799	3.196254
H	-0.892447	-1.326210	2.787305
H	0.892350	-1.325374	2.787282
H	0.001511	-4.815326	-1.307907
C	0.000000	0.000000	0.000000
C	0.729909	0.424971	1.113020
C	1.932179	1.124518	0.820578
H	0.394478	0.229765	2.142881
C	2.146756	1.249161	-0.563588
S	0.838724	0.488500	-1.464748
C	2.852364	1.659924	1.882380
H	2.465145	1.434710	2.894974
H	2.970621	2.761183	1.808137
H	3.868160	1.218416	1.808230
H	2.974781	1.731032	-1.097114
$end

$rem
JOBTYPE		SP
EXCHANGE	HF
CORRELATION	pRIMP2
BASIS		cc-pvtz
METHOD		rimp2
AUX_BASIS	rimp2-cc-pvtz
SOLVENT_METHOD	PCM
PURECART	11111
SYMMETRY	false
MEM_TOTAL	110000
SCF_CONVERGENCE = 6
THRESH=10
GUI = 2
$end

$solvent
dielectric 4.90
$end
--------------------------------------------------------------

             Standard Nuclear Orientation (Angstroms)
    I     Atom           X                Y                Z
 ----------------------------------------------------------------
    1      C       0.0010920000    -3.8878000000    -0.7244600000
    2      C       0.0010360000    -3.7014560000     0.6611310000
    3      C       0.0004060000    -2.3451700000     1.0852030000
    4      H       0.0014330000    -4.5452330000     1.3673050000
    5      C       0.0000000000    -1.4501350000     0.0000000000
    6      S       0.0003670000    -2.3213340000    -1.5275170000
    7      C       0.0002330000    -1.9344390000     2.5314780000
    8      H       0.0006560000    -2.8197990000     3.1962540000
    9      H      -0.8924470000    -1.3262100000     2.7873050000
   10      H       0.8923500000    -1.3253740000     2.7872820000
   11      H       0.0015110000    -4.8153260000    -1.3079070000
   12      C       0.0000000000     0.0000000000     0.0000000000
   13      C       0.7299090000     0.4249710000     1.1130200000
   14      C       1.9321790000     1.1245180000     0.8205780000
   15      H       0.3944780000     0.2297650000     2.1428810000
   16      C       2.1467560000     1.2491610000    -0.5635880000
   17      S       0.8387240000     0.4885000000    -1.4647480000
   18      C       2.8523640000     1.6599240000     1.8823800000
   19      H       2.4651450000     1.4347100000     2.8949740000
   20      H       2.9706210000     2.7611830000     1.8081370000
   21      H       3.8681600000     1.2184160000     1.8082300000
   22      H       2.9747810000     1.7310320000    -1.0971140000
 ----------------------------------------------------------------

   11   -1179.6029806212      6.27e-07  Convergence criterion met
 Total energy in the final basis set =    -1179.6029806212
        RIMP2         total energy =     -1181.6004653985 a.u.

                    Orbital Energies (a.u.)
 --------------------------------------------------------------

 Alpha MOs
 -- Occupied --
-91.9845 -91.9740 -11.2946 -11.2808 -11.2658 -11.2577 -11.2563 -11.2543
-11.2370 -11.2330 -11.2321 -11.2271  -8.9855  -8.9745  -6.6663  -6.6655
 -6.6651  -6.6555  -6.6548  -6.6542  -1.1944  -1.1448  -1.0482  -1.0265
 -0.9964  -0.9535  -0.9124  -0.8950  -0.7991  -0.7582  -0.7302  -0.7027
 -0.6525  -0.6189  -0.6017  -0.5846  -0.5707  -0.5576  -0.5497  -0.5429
 -0.5342  -0.5191  -0.5042  -0.4861  -0.4833  -0.4597  -0.4422  -0.3705
 -0.3513  -0.3266  -0.2612

          Ground-State Mulliken Net Atomic Charges

     Atom                 Charge (a.u.)
  ----------------------------------------
      1 C                    -0.254348
      2 C                    -0.244675
      3 C                     0.017367
      4 H                     0.181301
      5 C                    -0.013249
      6 S                    -0.004783
      7 C                    -0.295347
      8 H                     0.113259
      9 H                     0.104826
     10 H                     0.096153
     11 H                     0.199758
     12 C                    -0.109623
     13 C                    -0.107352
     14 C                    -0.021524
     15 H                     0.203105
     16 C                    -0.159380
     17 S                     0.036967
     18 C                    -0.270837
     19 H                     0.102674
     20 H                     0.111819
     21 H                     0.108303
     22 H                     0.205584
  ----------------------------------------
  Sum of atomic charges =     0.000000

                    Cartesian Multipole Moments
 -----------------------------------------------------------------
    Charge (ESU x 10^10)
                -0.0000
    Dipole Moment (Debye)
         X       3.0785      Y       1.5111      Z       3.1053
       Tot       4.6264
    Quadrupole Moments (Debye-Ang)
        XX     -82.4413     XY       5.8902     YY     -82.0355
        XZ       0.5488     YZ      -1.9253     ZZ     -79.8759

 Total job time:  69.98s(wall), 3001.06s(cpu)
        *  Thank you very much for using Q-Chem.  Have a nice day.  *
