 Q-Chem 5.4, Q-Chem, Inc., Pleasanton, CA (2021)
 Q-Chem 5.4.0 for Intel X86 EM64T Linux

User input:
--------------------------------------------------------------
$molecule
0 1
C	0.246754	-3.887800	0.681143
C	-0.227093	-3.701456	-0.620906
C	-0.371543	-2.345170	-1.019618
H	-0.468992	-4.545233	-1.284357
C	-0.000000	-1.450135	-0.000000
S	0.522097	-2.321334	1.435522
C	-0.866035	-1.934439	-2.378731
H	-1.093799	-2.819799	-3.003272
H	-0.114688	-1.326210	-2.924444
H	-1.791841	-1.325374	-2.313987
H	0.445911	-4.815326	1.229547
C	0.000000	0.000000	0.000000
C	0.540541	0.648986	1.113020
C	1.431046	1.717546	0.820578
H	0.292104	0.350827	2.142881
C	1.590053	1.908061	-0.563588
S	0.621066	0.745901	-1.464748
C	2.112618	2.535384	1.882380
H	1.825779	2.191315	2.894974
H	1.847090	3.610676	1.808137
H	3.218159	2.467925	1.808230
H	2.203332	2.644073	-1.097114
$end

$rem
JOBTYPE		SP
EXCHANGE	HF
CORRELATION	pRIMP2
BASIS		cc-pvtz
METHOD		rimp2
AUX_BASIS	rimp2-cc-pvtz
SOLVENT_METHOD	PCM
PURECART	11111
SYMMETRY	false
MEM_TOTAL	110000
SCF_CONVERGENCE = 6
THRESH=10
GUI = 2
$end

$solvent
dielectric 4.90
$end
--------------------------------------------------------------

             Standard Nuclear Orientation (Angstroms)
    I     Atom           X                Y                Z
 ----------------------------------------------------------------
    1      C       0.2467540000    -3.8878000000     0.6811430000
    2      C      -0.2270930000    -3.7014560000    -0.6209060000
    3      C      -0.3715430000    -2.3451700000    -1.0196180000
    4      H      -0.4689920000    -4.5452330000    -1.2843570000
    5      C       0.0000000000    -1.4501350000     0.0000000000
    6      S       0.5220970000    -2.3213340000     1.4355220000
    7      C      -0.8660350000    -1.9344390000    -2.3787310000
    8      H      -1.0937990000    -2.8197990000    -3.0032720000
    9      H      -0.1146880000    -1.3262100000    -2.9244440000
   10      H      -1.7918410000    -1.3253740000    -2.3139870000
   11      H       0.4459110000    -4.8153260000     1.2295470000
   12      C       0.0000000000     0.0000000000     0.0000000000
   13      C       0.5405410000     0.6489860000     1.1130200000
   14      C       1.4310460000     1.7175460000     0.8205780000
   15      H       0.2921040000     0.3508270000     2.1428810000
   16      C       1.5900530000     1.9080610000    -0.5635880000
   17      S       0.6210660000     0.7459010000    -1.4647480000
   18      C       2.1126180000     2.5353840000     1.8823800000
   19      H       1.8257790000     2.1913150000     2.8949740000
   20      H       1.8470900000     3.6106760000     1.8081370000
   21      H       3.2181590000     2.4679250000     1.8082300000
   22      H       2.2033320000     2.6440730000    -1.0971140000
 ----------------------------------------------------------------

   10   -1179.6558052160      6.22e-07  Convergence criterion met
 Total energy in the final basis set =    -1179.6558052160
        RIMP2         total energy =     -1181.6436169127 a.u.

                    Orbital Energies (a.u.)
 --------------------------------------------------------------

 Alpha MOs
 -- Occupied --
-91.9850 -91.9818 -11.2773 -11.2754 -11.2731 -11.2656 -11.2544 -11.2501
-11.2440 -11.2406 -11.2304 -11.2276  -8.9851  -8.9817  -6.6660  -6.6653
 -6.6648  -6.6626  -6.6620  -6.6614  -1.1845  -1.1484  -1.0433  -1.0228
 -0.9999  -0.9505  -0.9141  -0.8941  -0.7973  -0.7648  -0.7229  -0.6926
 -0.6596  -0.6180  -0.5845  -0.5811  -0.5780  -0.5702  -0.5512  -0.5340
 -0.5256  -0.5182  -0.5098  -0.4966  -0.4796  -0.4670  -0.4511  -0.3638
 -0.3452  -0.3386  -0.2679

          Ground-State Mulliken Net Atomic Charges

     Atom                 Charge (a.u.)
  ----------------------------------------
      1 C                    -0.230106
      2 C                    -0.245976
      3 C                     0.030413
      4 H                     0.183923
      5 C                    -0.009781
      6 S                     0.004958
      7 C                    -0.313559
      8 H                     0.112874
      9 H                     0.110630
     10 H                     0.116413
     11 H                     0.203414
     12 C                    -0.006106
     13 C                    -0.252561
     14 C                     0.040285
     15 H                     0.186167
     16 C                    -0.229565
     17 S                     0.043702
     18 C                    -0.266440
     19 H                     0.103522
     20 H                     0.108724
     21 H                     0.108667
     22 H                     0.200401
  ----------------------------------------
  Sum of atomic charges =     0.000000

                    Cartesian Multipole Moments
 -----------------------------------------------------------------
    Charge (ESU x 10^10)
                -0.0000
    Dipole Moment (Debye)
         X       1.0924      Y       0.7627      Z       0.1025
       Tot       1.3362
    Quadrupole Moments (Debye-Ang)
        XX     -87.0699     XY       6.7043     YY     -74.7083
        XZ       2.6802     YZ       3.1874     ZZ     -80.6278

 Total job time:  53.12s(wall), 1821.48s(cpu)
        *  Thank you very much for using Q-Chem.  Have a nice day.  *
