 Q-Chem 5.4, Q-Chem, Inc., Pleasanton, CA (2021)
 Q-Chem 5.4.0 for Intel X86 EM64T Linux

User input:
--------------------------------------------------------------
$molecule
0 1
C	-0.124726	-3.887800	-0.713644
C	0.115824	-3.701456	0.650907
C	0.188844	-2.345170	1.068646
H	0.238841	-4.545233	1.346284
C	-0.000000	-1.450135	-0.000000
S	-0.264890	-2.321334	-1.504375
C	0.439816	-1.934439	2.492978
H	0.555669	-2.819799	3.147582
H	-0.394879	-1.326210	2.899931
H	1.362799	-1.325374	2.589982
H	-0.225628	-4.815326	-1.288299
C	0.000000	0.000000	0.000000
C	0.070542	0.841660	1.113020
C	0.187101	2.227746	0.820578
H	0.038051	0.454925	2.142881
C	0.208076	2.475009	-0.563588
S	0.080917	0.967235	-1.464748
C	0.276318	3.288613	1.882380
H	0.238704	2.842244	2.894974
H	-0.557951	4.017140	1.808137
H	1.220618	3.867466	1.808230
H	0.288286	3.429678	-1.097114
$end

$rem
JOBTYPE		SP
EXCHANGE	HF
CORRELATION	pRIMP2
BASIS		cc-pvtz
METHOD		rimp2
AUX_BASIS	rimp2-cc-pvtz
SOLVENT_METHOD	PCM
PURECART	11111
SYMMETRY	false
MEM_TOTAL	110000
SCF_CONVERGENCE = 6
THRESH=10
GUI = 2
$end

$solvent
dielectric 4.90
$end
--------------------------------------------------------------

             Standard Nuclear Orientation (Angstroms)
    I     Atom           X                Y                Z
 ----------------------------------------------------------------
    1      C      -0.1247260000    -3.8878000000    -0.7136440000
    2      C       0.1158240000    -3.7014560000     0.6509070000
    3      C       0.1888440000    -2.3451700000     1.0686460000
    4      H       0.2388410000    -4.5452330000     1.3462840000
    5      C       0.0000000000    -1.4501350000     0.0000000000
    6      S      -0.2648900000    -2.3213340000    -1.5043750000
    7      C       0.4398160000    -1.9344390000     2.4929780000
    8      H       0.5556690000    -2.8197990000     3.1475820000
    9      H      -0.3948790000    -1.3262100000     2.8999310000
   10      H       1.3627990000    -1.3253740000     2.5899820000
   11      H      -0.2256280000    -4.8153260000    -1.2882990000
   12      C       0.0000000000     0.0000000000     0.0000000000
   13      C       0.0705420000     0.8416600000     1.1130200000
   14      C       0.1871010000     2.2277460000     0.8205780000
   15      H       0.0380510000     0.4549250000     2.1428810000
   16      C       0.2080760000     2.4750090000    -0.5635880000
   17      S       0.0809170000     0.9672350000    -1.4647480000
   18      C       0.2763180000     3.2886130000     1.8823800000
   19      H       0.2387040000     2.8422440000     2.8949740000
   20      H      -0.5579510000     4.0171400000     1.8081370000
   21      H       1.2206180000     3.8674660000     1.8082300000
   22      H       0.2882860000     3.4296780000    -1.0971140000
 ----------------------------------------------------------------

   10   -1179.6846301305      5.19e-07  Convergence criterion met
 Total energy in the final basis set =    -1179.6846301305
        RIMP2         total energy =     -1181.6646972510 a.u.

                    Orbital Energies (a.u.)
 --------------------------------------------------------------

 Alpha MOs
 -- Occupied --
-91.9860 -91.9860 -11.2842 -11.2796 -11.2734 -11.2642 -11.2542 -11.2521
-11.2445 -11.2385 -11.2318 -11.2295  -8.9859  -8.9857  -6.6668  -6.6667
 -6.6663  -6.6662  -6.6657  -6.6655  -1.1811  -1.1505  -1.0411  -1.0281
 -0.9957  -0.9559  -0.9152  -0.8951  -0.8024  -0.7565  -0.7269  -0.7016
 -0.6620  -0.6147  -0.5916  -0.5824  -0.5701  -0.5632  -0.5515  -0.5403
 -0.5298  -0.5232  -0.5031  -0.4920  -0.4891  -0.4765  -0.4521  -0.3695
 -0.3474  -0.3381  -0.2700

          Ground-State Mulliken Net Atomic Charges

     Atom                 Charge (a.u.)
  ----------------------------------------
      1 C                    -0.211593
      2 C                    -0.256053
      3 C                     0.076696
      4 H                     0.185248
      5 C                    -0.052328
      6 S                     0.009808
      7 C                    -0.313003
      8 H                     0.119658
      9 H                     0.105775
     10 H                     0.115053
     11 H                     0.207306
     12 C                     0.034124
     13 C                    -0.245096
     14 C                     0.024806
     15 H                     0.196867
     16 C                    -0.253061
     17 S                     0.008344
     18 C                    -0.271604
     19 H                     0.101337
     20 H                     0.108653
     21 H                     0.108921
     22 H                     0.200143
  ----------------------------------------
  Sum of atomic charges =     0.000000

                    Cartesian Multipole Moments
 -----------------------------------------------------------------
    Charge (ESU x 10^10)
                -0.0000
    Dipole Moment (Debye)
         X       0.4218      Y       0.0951      Z       2.9631
       Tot       2.9945
    Quadrupole Moments (Debye-Ang)
        XX     -92.5197     XY       0.5173     YY     -68.3012
        XZ       1.2718     YZ      -1.1300     ZZ     -80.2094

 Total job time:  53.43s(wall), 1845.06s(cpu)
        *  Thank you very much for using Q-Chem.  Have a nice day.  *
