 Q-Chem 5.4, Q-Chem, Inc., Pleasanton, CA (2021)
 Q-Chem 5.4.0 for Intel X86 EM64T Linux

User input:
--------------------------------------------------------------
$molecule
0 1
C	0.724460	-3.887800	0.001092
C	-0.661131	-3.701456	0.001036
C	-1.085203	-2.345170	0.000406
H	-1.367305	-4.545233	0.001433
C	0.000000	-1.450135	0.000000
S	1.527517	-2.321334	0.000367
C	-2.531478	-1.934439	0.000233
H	-3.196254	-2.819799	0.000656
H	-2.787305	-1.326210	-0.892447
H	-2.787282	-1.325374	0.892350
H	1.307907	-4.815326	0.001511
C	0.000000	0.000000	0.000000
C	0.645024	0.545262	1.113020
C	1.707554	1.442954	0.820578
H	0.348587	0.294774	2.142881
C	1.897227	1.602964	-0.563588
S	0.741155	0.626722	-1.464748
C	2.520787	2.130014	1.882380
H	2.178559	1.840981	2.894974
H	2.446016	3.235078	1.808137
H	3.597818	1.871604	1.808230
H	2.628997	2.221299	-1.097114
$end

$rem
JOBTYPE		SP
EXCHANGE	HF
CORRELATION	pRIMP2
BASIS		cc-pvtz
METHOD		rimp2
AUX_BASIS	rimp2-cc-pvtz
SOLVENT_METHOD	PCM
PURECART	11111
SYMMETRY	false
MEM_TOTAL	110000
SCF_CONVERGENCE = 6
THRESH=10
GUI = 2
$end

$solvent
dielectric 4.90
$end
--------------------------------------------------------------

             Standard Nuclear Orientation (Angstroms)
    I     Atom           X                Y                Z
 ----------------------------------------------------------------
    1      C       0.7244600000    -3.8878000000     0.0010920000
    2      C      -0.6611310000    -3.7014560000     0.0010360000
    3      C      -1.0852030000    -2.3451700000     0.0004060000
    4      H      -1.3673050000    -4.5452330000     0.0014330000
    5      C       0.0000000000    -1.4501350000     0.0000000000
    6      S       1.5275170000    -2.3213340000     0.0003670000
    7      C      -2.5314780000    -1.9344390000     0.0002330000
    8      H      -3.1962540000    -2.8197990000     0.0006560000
    9      H      -2.7873050000    -1.3262100000    -0.8924470000
   10      H      -2.7872820000    -1.3253740000     0.8923500000
   11      H       1.3079070000    -4.8153260000     0.0015110000
   12      C       0.0000000000     0.0000000000     0.0000000000
   13      C       0.6450240000     0.5452620000     1.1130200000
   14      C       1.7075540000     1.4429540000     0.8205780000
   15      H       0.3485870000     0.2947740000     2.1428810000
   16      C       1.8972270000     1.6029640000    -0.5635880000
   17      S       0.7411550000     0.6267220000    -1.4647480000
   18      C       2.5207870000     2.1300140000     1.8823800000
   19      H       2.1785590000     1.8409810000     2.8949740000
   20      H       2.4460160000     3.2350780000     1.8081370000
   21      H       3.5978180000     1.8716040000     1.8082300000
   22      H       2.6289970000     2.2212990000    -1.0971140000
 ----------------------------------------------------------------

   10   -1179.6388364654      6.67e-07  Convergence criterion met
 Total energy in the final basis set =    -1179.6388364654
        RIMP2         total energy =     -1181.6271160533 a.u.

                    Orbital Energies (a.u.)
 --------------------------------------------------------------

 Alpha MOs
 -- Occupied --
-91.9827 -91.9776 -11.2828 -11.2701 -11.2669 -11.2585 -11.2569 -11.2527
-11.2429 -11.2372 -11.2304 -11.2260  -8.9829  -8.9777  -6.6637  -6.6630
 -6.6626  -6.6586  -6.6580  -6.6574  -1.1848  -1.1465  -1.0427  -1.0183
 -0.9984  -0.9512  -0.9118  -0.8908  -0.7966  -0.7502  -0.7369  -0.6900
 -0.6574  -0.6200  -0.5846  -0.5798  -0.5691  -0.5685  -0.5486  -0.5332
 -0.5299  -0.5161  -0.5082  -0.4902  -0.4680  -0.4622  -0.4618  -0.3580
 -0.3298  -0.3148  -0.2988

          Ground-State Mulliken Net Atomic Charges

     Atom                 Charge (a.u.)
  ----------------------------------------
      1 C                    -0.215900
      2 C                    -0.253272
      3 C                     0.053189
      4 H                     0.181735
      5 C                    -0.063425
      6 S                     0.014802
      7 C                    -0.284597
      8 H                     0.106212
      9 H                     0.109266
     10 H                     0.107705
     11 H                     0.202408
     12 C                    -0.076431
     13 C                    -0.174181
     14 C                     0.012018
     15 H                     0.184674
     16 C                    -0.192462
     17 S                     0.035760
     18 C                    -0.266736
     19 H                     0.103277
     20 H                     0.107903
     21 H                     0.107038
     22 H                     0.201017
  ----------------------------------------
  Sum of atomic charges =     0.000000

                    Cartesian Multipole Moments
 -----------------------------------------------------------------
    Charge (ESU x 10^10)
                -0.0000
    Dipole Moment (Debye)
         X       0.7241      Y       0.7223      Z       1.6247
       Tot       1.9198
    Quadrupole Moments (Debye-Ang)
        XX     -79.4130     XY       8.4175     YY     -76.8806
        XZ       0.6528     YZ       0.7025     ZZ     -86.0635

 Total job time:  54.25s(wall), 1784.08s(cpu)
        *  Thank you very much for using Q-Chem.  Have a nice day.  *
