 Q-Chem 5.4, Q-Chem, Inc., Pleasanton, CA (2021)
 Q-Chem 5.4.0 for Intel X86 EM64T Linux

User input:
--------------------------------------------------------------
$molecule
0 1
C	0.363176	-3.887800	-0.626855
C	-0.329669	-3.701456	0.573074
C	-0.542250	-2.345170	0.940016
H	-0.682412	-4.545233	1.184837
C	0.000000	-1.450135	0.000000
S	0.764076	-2.321334	-1.322686
C	-1.265537	-1.934439	2.192440
H	-1.597559	-2.819799	2.768365
H	-2.166534	-1.326210	1.967653
H	-0.620843	-1.325374	2.860032
H	0.655262	-4.815326	-1.131925
C	0.000000	0.000000	0.000000
C	0.729909	0.424971	1.113020
C	1.932179	1.124518	0.820578
H	0.394478	0.229765	2.142881
C	2.146756	1.249161	-0.563588
S	0.838724	0.488500	-1.464748
C	2.852364	1.659924	1.882380
H	2.465145	1.434710	2.894974
H	2.970621	2.761183	1.808137
H	3.868160	1.218416	1.808230
H	2.974781	1.731032	-1.097114
$end

$rem
JOBTYPE		SP
EXCHANGE	HF
CORRELATION	pRIMP2
BASIS		cc-pvtz
METHOD		rimp2
AUX_BASIS	rimp2-cc-pvtz
SOLVENT_METHOD	PCM
PURECART	11111
SYMMETRY	false
MEM_TOTAL	110000
SCF_CONVERGENCE = 6
THRESH=10
GUI = 2
$end

$solvent
dielectric 4.90
$end
--------------------------------------------------------------

             Standard Nuclear Orientation (Angstroms)
    I     Atom           X                Y                Z
 ----------------------------------------------------------------
    1      C       0.3631760000    -3.8878000000    -0.6268550000
    2      C      -0.3296690000    -3.7014560000     0.5730740000
    3      C      -0.5422500000    -2.3451700000     0.9400160000
    4      H      -0.6824120000    -4.5452330000     1.1848370000
    5      C       0.0000000000    -1.4501350000     0.0000000000
    6      S       0.7640760000    -2.3213340000    -1.3226860000
    7      C      -1.2655370000    -1.9344390000     2.1924400000
    8      H      -1.5975590000    -2.8197990000     2.7683650000
    9      H      -2.1665340000    -1.3262100000     1.9676530000
   10      H      -0.6208430000    -1.3253740000     2.8600320000
   11      H       0.6552620000    -4.8153260000    -1.1319250000
   12      C       0.0000000000     0.0000000000     0.0000000000
   13      C       0.7299090000     0.4249710000     1.1130200000
   14      C       1.9321790000     1.1245180000     0.8205780000
   15      H       0.3944780000     0.2297650000     2.1428810000
   16      C       2.1467560000     1.2491610000    -0.5635880000
   17      S       0.8387240000     0.4885000000    -1.4647480000
   18      C       2.8523640000     1.6599240000     1.8823800000
   19      H       2.4651450000     1.4347100000     2.8949740000
   20      H       2.9706210000     2.7611830000     1.8081370000
   21      H       3.8681600000     1.2184160000     1.8082300000
   22      H       2.9747810000     1.7310320000    -1.0971140000
 ----------------------------------------------------------------

   11   -1179.6110190725      5.19e-07  Convergence criterion met
 Total energy in the final basis set =    -1179.6110190725
        RIMP2         total energy =     -1181.6067020182 a.u.

                    Orbital Energies (a.u.)
 --------------------------------------------------------------

 Alpha MOs
 -- Occupied --
-91.9860 -91.9769 -11.2948 -11.2800 -11.2710 -11.2590 -11.2579 -11.2493
-11.2359 -11.2331 -11.2280 -11.2250  -8.9870  -8.9767  -6.6678  -6.6669
 -6.6667  -6.6576  -6.6569  -6.6562  -1.1952  -1.1440  -1.0488  -1.0211
 -0.9982  -0.9550  -0.9092  -0.8926  -0.8012  -0.7554  -0.7324  -0.6972
 -0.6525  -0.6210  -0.5976  -0.5815  -0.5694  -0.5604  -0.5487  -0.5419
 -0.5349  -0.5164  -0.5060  -0.4887  -0.4847  -0.4563  -0.4460  -0.3698
 -0.3392  -0.3338  -0.2638

          Ground-State Mulliken Net Atomic Charges

     Atom                 Charge (a.u.)
  ----------------------------------------
      1 C                    -0.274247
      2 C                    -0.236037
      3 C                    -0.005260
      4 H                     0.179906
      5 C                     0.014069
      6 S                     0.010515
      7 C                    -0.299977
      8 H                     0.108751
      9 H                     0.108457
     10 H                     0.092714
     11 H                     0.197565
     12 C                    -0.112601
     13 C                    -0.083262
     14 C                    -0.029714
     15 H                     0.203946
     16 C                    -0.161495
     17 S                     0.027759
     18 C                    -0.266430
     19 H                     0.102969
     20 H                     0.108719
     21 H                     0.107608
     22 H                     0.206046
  ----------------------------------------
  Sum of atomic charges =     0.000000

                    Cartesian Multipole Moments
 -----------------------------------------------------------------
    Charge (ESU x 10^10)
                -0.0000
    Dipole Moment (Debye)
         X       2.4693      Y       1.7757      Z       2.7779
       Tot       4.1192
    Quadrupole Moments (Debye-Ang)
        XX     -81.0079     XY       7.1814     YY     -82.8461
        XZ      -1.8092     YZ      -1.4943     ZZ     -81.2990

 Total job time:  57.07s(wall), 2131.66s(cpu)
        *  Thank you very much for using Q-Chem.  Have a nice day.  *
