 Q-Chem 5.4, Q-Chem, Inc., Pleasanton, CA (2021)
 Q-Chem 5.4.0 for Intel X86 EM64T Linux

User input:
--------------------------------------------------------------
$molecule
0 1
C	0.466510	-3.887800	-0.554267
C	-0.424173	-3.701456	0.507121
C	-0.697244	-2.345170	0.831575
H	-0.877789	-4.545233	1.048337
C	0.000000	-1.450135	0.000000
S	0.982150	-2.321334	-1.169911
C	-1.627024	-1.934439	1.939374
H	-2.054010	-2.819799	2.448894
H	-2.475299	-1.326210	1.561545
H	-1.108051	-1.325374	2.708773
H	0.841863	-4.815326	-1.000944
C	0.000000	0.000000	0.000000
C	0.285976	0.794723	1.113020
C	0.757308	2.103412	0.820578
H	0.154498	0.429575	2.142881
C	0.841565	2.336821	-0.563588
S	0.328498	0.913334	-1.464748
C	1.118059	3.105040	1.882380
H	0.966197	2.683616	2.894974
H	0.500773	4.024668	1.808137
H	2.180000	3.419766	1.808230
H	1.166129	3.238200	-1.097114
$end

$rem
JOBTYPE		SP
EXCHANGE	HF
CORRELATION	pRIMP2
BASIS		cc-pvtz
METHOD		rimp2
AUX_BASIS	rimp2-cc-pvtz
SOLVENT_METHOD	PCM
PURECART	11111
SYMMETRY	false
MEM_TOTAL	110000
SCF_CONVERGENCE = 6
THRESH=10
GUI = 2
$end

$solvent
dielectric 4.90
$end
--------------------------------------------------------------

             Standard Nuclear Orientation (Angstroms)
    I     Atom           X                Y                Z
 ----------------------------------------------------------------
    1      C       0.4665100000    -3.8878000000    -0.5542670000
    2      C      -0.4241730000    -3.7014560000     0.5071210000
    3      C      -0.6972440000    -2.3451700000     0.8315750000
    4      H      -0.8777890000    -4.5452330000     1.0483370000
    5      C       0.0000000000    -1.4501350000     0.0000000000
    6      S       0.9821500000    -2.3213340000    -1.1699110000
    7      C      -1.6270240000    -1.9344390000     1.9393740000
    8      H      -2.0540100000    -2.8197990000     2.4488940000
    9      H      -2.4752990000    -1.3262100000     1.5615450000
   10      H      -1.1080510000    -1.3253740000     2.7087730000
   11      H       0.8418630000    -4.8153260000    -1.0009440000
   12      C       0.0000000000     0.0000000000     0.0000000000
   13      C       0.2859760000     0.7947230000     1.1130200000
   14      C       0.7573080000     2.1034120000     0.8205780000
   15      H       0.1544980000     0.4295750000     2.1428810000
   16      C       0.8415650000     2.3368210000    -0.5635880000
   17      S       0.3284980000     0.9133340000    -1.4647480000
   18      C       1.1180590000     3.1050400000     1.8823800000
   19      H       0.9661970000     2.6836160000     2.8949740000
   20      H       0.5007730000     4.0246680000     1.8081370000
   21      H       2.1800000000     3.4197660000     1.8082300000
   22      H       1.1661290000     3.2382000000    -1.0971140000
 ----------------------------------------------------------------

   10   -1179.6792146308      4.93e-07  Convergence criterion met
 Total energy in the final basis set =    -1179.6792146308
        RIMP2         total energy =     -1181.6597720389 a.u.

                    Orbital Energies (a.u.)
 --------------------------------------------------------------

 Alpha MOs
 -- Occupied --
-91.9868 -91.9854 -11.2806 -11.2774 -11.2696 -11.2673 -11.2529 -11.2496
-11.2437 -11.2425 -11.2298 -11.2295  -8.9864  -8.9850  -6.6673  -6.6667
 -6.6661  -6.6659  -6.6654  -6.6648  -1.1806  -1.1498  -1.0412  -1.0242
 -0.9961  -0.9559  -0.9125  -0.8940  -0.8015  -0.7532  -0.7303  -0.6976
 -0.6610  -0.6157  -0.5876  -0.5807  -0.5701  -0.5644  -0.5516  -0.5366
 -0.5302  -0.5205  -0.5066  -0.4914  -0.4855  -0.4735  -0.4561  -0.3603
 -0.3423  -0.3382  -0.2764

          Ground-State Mulliken Net Atomic Charges

     Atom                 Charge (a.u.)
  ----------------------------------------
      1 C                    -0.219398
      2 C                    -0.248981
      3 C                     0.038132
      4 H                     0.184622
      5 C                    -0.031945
      6 S                     0.019645
      7 C                    -0.294492
      8 H                     0.110515
      9 H                     0.112912
     10 H                     0.105649
     11 H                     0.204396
     12 C                    -0.004647
     13 C                    -0.207780
     14 C                     0.010509
     15 H                     0.192683
     16 C                    -0.227612
     17 S                     0.008504
     18 C                    -0.271632
     19 H                     0.102086
     20 H                     0.108493
     21 H                     0.108627
     22 H                     0.199713
  ----------------------------------------
  Sum of atomic charges =     0.000000

                    Cartesian Multipole Moments
 -----------------------------------------------------------------
    Charge (ESU x 10^10)
                -0.0000
    Dipole Moment (Debye)
         X      -0.2434      Y       0.4658      Z       2.6163
       Tot       2.6685
    Quadrupole Moments (Debye-Ang)
        XX     -88.7729     XY       4.9942     YY     -70.3897
        XZ      -2.7987     YZ      -0.6862     ZZ     -82.7954

 Total job time:  54.17s(wall), 1772.53s(cpu)
        *  Thank you very much for using Q-Chem.  Have a nice day.  *
