 Q-Chem 5.4, Q-Chem, Inc., Pleasanton, CA (2021)
 Q-Chem 5.4.0 for Intel X86 EM64T Linux

User input:
--------------------------------------------------------------
$molecule
0 1
C	-0.627947	-3.887800	0.361285
C	0.572038	-3.701456	-0.331462
C	0.939610	-2.345170	-0.542953
H	1.183405	-4.545233	-0.684893
C	-0.000000	-1.450135	-0.000000
S	-1.323052	-2.321334	0.763441
C	2.192207	-1.934439	-1.265941
H	2.767709	-2.819799	-1.598695
H	2.860100	-1.326210	-0.620770
H	1.967682	-1.325374	-2.166438
H	-1.133436	-4.815326	0.652645
C	0.000000	0.000000	0.000000
C	0.215623	0.816623	1.113020
C	0.571102	2.161411	0.820578
H	0.116470	0.441406	2.142881
C	0.634696	2.401276	-0.563588
S	0.247646	0.938489	-1.464748
C	0.843182	3.190669	1.882380
H	0.728628	2.757614	2.894974
H	0.148095	4.052998	1.808137
H	1.873652	3.596752	1.808230
H	0.879464	3.327513	-1.097114
$end

$rem
JOBTYPE		SP
EXCHANGE	HF
CORRELATION	pRIMP2
BASIS		cc-pvtz
METHOD		rimp2
AUX_BASIS	rimp2-cc-pvtz
SOLVENT_METHOD	PCM
PURECART	11111
SYMMETRY	false
MEM_TOTAL	110000
SCF_CONVERGENCE = 6
THRESH=10
GUI = 2
$end

$solvent
dielectric 4.90
$end
--------------------------------------------------------------

             Standard Nuclear Orientation (Angstroms)
    I     Atom           X                Y                Z
 ----------------------------------------------------------------
    1      C      -0.6279470000    -3.8878000000     0.3612850000
    2      C       0.5720380000    -3.7014560000    -0.3314620000
    3      C       0.9396100000    -2.3451700000    -0.5429530000
    4      H       1.1834050000    -4.5452330000    -0.6848930000
    5      C       0.0000000000    -1.4501350000     0.0000000000
    6      S      -1.3230520000    -2.3213340000     0.7634410000
    7      C       2.1922070000    -1.9344390000    -1.2659410000
    8      H       2.7677090000    -2.8197990000    -1.5986950000
    9      H       2.8601000000    -1.3262100000    -0.6207700000
   10      H       1.9676820000    -1.3253740000    -2.1664380000
   11      H      -1.1334360000    -4.8153260000     0.6526450000
   12      C       0.0000000000     0.0000000000     0.0000000000
   13      C       0.2156230000     0.8166230000     1.1130200000
   14      C       0.5711020000     2.1614110000     0.8205780000
   15      H       0.1164700000     0.4414060000     2.1428810000
   16      C       0.6346960000     2.4012760000    -0.5635880000
   17      S       0.2476460000     0.9384890000    -1.4647480000
   18      C       0.8431820000     3.1906690000     1.8823800000
   19      H       0.7286280000     2.7576140000     2.8949740000
   20      H       0.1480950000     4.0529980000     1.8081370000
   21      H       1.8736520000     3.5967520000     1.8082300000
   22      H       0.8794640000     3.3275130000    -1.0971140000
 ----------------------------------------------------------------

   10   -1179.6814058232      5.05e-07  Convergence criterion met
 Total energy in the final basis set =    -1179.6814058232
        RIMP2         total energy =     -1181.6612459548 a.u.

                    Orbital Energies (a.u.)
 --------------------------------------------------------------

 Alpha MOs
 -- Occupied --
-91.9853 -91.9849 -11.2791 -11.2754 -11.2712 -11.2664 -11.2518 -11.2514
-11.2431 -11.2422 -11.2293 -11.2275  -8.9849  -8.9844  -6.6658  -6.6653
 -6.6652  -6.6648  -6.6646  -6.6642  -1.1788  -1.1495  -1.0401  -1.0218
 -0.9978  -0.9535  -0.9131  -0.8928  -0.7988  -0.7578  -0.7264  -0.6949
 -0.6613  -0.6166  -0.5821  -0.5781  -0.5737  -0.5697  -0.5513  -0.5317
 -0.5275  -0.5192  -0.5096  -0.4938  -0.4853  -0.4659  -0.4589  -0.3486
 -0.3424  -0.3326  -0.2882

          Ground-State Mulliken Net Atomic Charges

     Atom                 Charge (a.u.)
  ----------------------------------------
      1 C                    -0.216355
      2 C                    -0.250516
      3 C                     0.046817
      4 H                     0.185156
      5 C                    -0.029961
      6 S                     0.024523
      7 C                    -0.289337
      8 H                     0.109135
      9 H                     0.113990
     10 H                     0.112576
     11 H                     0.204009
     12 C                    -0.025839
     13 C                    -0.227025
     14 C                     0.018445
     15 H                     0.187074
     16 C                    -0.233263
     17 S                     0.023383
     18 C                    -0.270389
     19 H                     0.102988
     20 H                     0.108274
     21 H                     0.107825
     22 H                     0.198492
  ----------------------------------------
  Sum of atomic charges =     0.000000

                    Cartesian Multipole Moments
 -----------------------------------------------------------------
    Charge (ESU x 10^10)
                -0.0000
    Dipole Moment (Debye)
         X       1.8293      Y       0.3774      Z       0.6871
       Tot       1.9902
    Quadrupole Moments (Debye-Ang)
        XX     -87.1859     XY       0.8264     YY     -69.9056
        XZ      -2.6094     YZ       2.2152     ZZ     -84.9538

 Total job time:  50.10s(wall), 1764.12s(cpu)
        *  Thank you very much for using Q-Chem.  Have a nice day.  *
