 Q-Chem 5.4, Q-Chem, Inc., Pleasanton, CA (2021)
 Q-Chem 5.4.0 for Intel X86 EM64T Linux

User input:
--------------------------------------------------------------
$molecule
0 1
C	0.555670	-3.887800	-0.464838
C	-0.505790	-3.701456	0.425760
C	-0.831053	-2.345170	0.697866
H	-1.046496	-4.545233	0.879984
C	0.000000	-1.450135	0.000000
S	1.170382	-2.321334	-0.981588
C	-1.939074	-1.934439	1.627381
H	-2.448051	-2.819799	2.055015
H	-2.708853	-1.326210	1.107991
H	-1.561590	-1.325374	2.475210
H	1.002886	-4.815326	-0.839549
C	0.000000	0.000000	0.000000
C	0.729909	0.424971	1.113020
C	1.932179	1.124518	0.820578
H	0.394478	0.229765	2.142881
C	2.146756	1.249161	-0.563588
S	0.838724	0.488500	-1.464748
C	2.852364	1.659924	1.882380
H	2.465145	1.434710	2.894974
H	2.970621	2.761183	1.808137
H	3.868160	1.218416	1.808230
H	2.974781	1.731032	-1.097114
$end

$rem
JOBTYPE		SP
EXCHANGE	HF
CORRELATION	pRIMP2
BASIS		cc-pvtz
METHOD		rimp2
AUX_BASIS	rimp2-cc-pvtz
SOLVENT_METHOD	PCM
PURECART	11111
SYMMETRY	false
MEM_TOTAL	110000
SCF_CONVERGENCE = 6
THRESH=10
GUI = 2
$end

$solvent
dielectric 4.90
$end
--------------------------------------------------------------

             Standard Nuclear Orientation (Angstroms)
    I     Atom           X                Y                Z
 ----------------------------------------------------------------
    1      C       0.5556700000    -3.8878000000    -0.4648380000
    2      C      -0.5057900000    -3.7014560000     0.4257600000
    3      C      -0.8310530000    -2.3451700000     0.6978660000
    4      H      -1.0464960000    -4.5452330000     0.8799840000
    5      C       0.0000000000    -1.4501350000     0.0000000000
    6      S       1.1703820000    -2.3213340000    -0.9815880000
    7      C      -1.9390740000    -1.9344390000     1.6273810000
    8      H      -2.4480510000    -2.8197990000     2.0550150000
    9      H      -2.7088530000    -1.3262100000     1.1079910000
   10      H      -1.5615900000    -1.3253740000     2.4752100000
   11      H       1.0028860000    -4.8153260000    -0.8395490000
   12      C       0.0000000000     0.0000000000     0.0000000000
   13      C       0.7299090000     0.4249710000     1.1130200000
   14      C       1.9321790000     1.1245180000     0.8205780000
   15      H       0.3944780000     0.2297650000     2.1428810000
   16      C       2.1467560000     1.2491610000    -0.5635880000
   17      S       0.8387240000     0.4885000000    -1.4647480000
   18      C       2.8523640000     1.6599240000     1.8823800000
   19      H       2.4651450000     1.4347100000     2.8949740000
   20      H       2.9706210000     2.7611830000     1.8081370000
   21      H       3.8681600000     1.2184160000     1.8082300000
   22      H       2.9747810000     1.7310320000    -1.0971140000
 ----------------------------------------------------------------

   10   -1179.6137583450      9.99e-07  Convergence criterion met
 Total energy in the final basis set =    -1179.6137583450
        RIMP2         total energy =     -1181.6085155107 a.u.

                    Orbital Energies (a.u.)
 --------------------------------------------------------------

 Alpha MOs
 -- Occupied --
-91.9853 -91.9761 -11.2932 -11.2765 -11.2693 -11.2563 -11.2562 -11.2531
-11.2353 -11.2323 -11.2304 -11.2241  -8.9862  -8.9760  -6.6669  -6.6661
 -6.6658  -6.6569  -6.6562  -6.6556  -1.1936  -1.1438  -1.0476  -1.0180
 -0.9989  -0.9539  -0.9090  -0.8910  -0.7999  -0.7511  -0.7365  -0.6935
 -0.6532  -0.6220  -0.5919  -0.5799  -0.5679  -0.5645  -0.5480  -0.5377
 -0.5339  -0.5157  -0.5061  -0.4888  -0.4801  -0.4552  -0.4514  -0.3643
 -0.3410  -0.3253  -0.2712

          Ground-State Mulliken Net Atomic Charges

     Atom                 Charge (a.u.)
  ----------------------------------------
      1 C                    -0.264360
      2 C                    -0.237811
      3 C                    -0.008075
      4 H                     0.180261
      5 C                     0.004370
      6 S                     0.016409
      7 C                    -0.291157
      8 H                     0.105715
      9 H                     0.105822
     10 H                     0.100243
     11 H                     0.198186
     12 C                    -0.120668
     13 C                    -0.082745
     14 C                    -0.022158
     15 H                     0.198677
     16 C                    -0.165525
     17 S                     0.026500
     18 C                    -0.266787
     19 H                     0.103175
     20 H                     0.108210
     21 H                     0.107031
     22 H                     0.204688
  ----------------------------------------
  Sum of atomic charges =     0.000000

                    Cartesian Multipole Moments
 -----------------------------------------------------------------
    Charge (ESU x 10^10)
                -0.0000
    Dipole Moment (Debye)
         X       2.0154      Y       1.5210      Z       2.4904
       Tot       3.5465
    Quadrupole Moments (Debye-Ang)
        XX     -79.4187     XY       7.6283     YY     -82.1502
        XZ      -2.1532     YZ      -0.9858     ZZ     -83.1006

 Total job time:  48.43s(wall), 1745.37s(cpu)
        *  Thank you very much for using Q-Chem.  Have a nice day.  *
