 Q-Chem 5.4, Q-Chem, Inc., Pleasanton, CA (2021)
 Q-Chem 5.4.0 for Intel X86 EM64T Linux

User input:
--------------------------------------------------------------
$molecule
0 1
C	-0.554267	-3.887800	-0.466510
C	0.507121	-3.701456	0.424173
C	0.831575	-2.345170	0.697244
H	1.048337	-4.545233	0.877789
C	0.000000	-1.450135	0.000000
S	-1.169911	-2.321334	-0.982150
C	1.939374	-1.934439	1.627024
H	2.448894	-2.819799	2.054010
H	1.561545	-1.326210	2.475299
H	2.708773	-1.325374	1.108051
H	-1.000944	-4.815326	-0.841863
C	0.000000	0.000000	0.000000
C	0.645024	0.545262	1.113020
C	1.707554	1.442954	0.820578
H	0.348587	0.294774	2.142881
C	1.897227	1.602964	-0.563588
S	0.741155	0.626722	-1.464748
C	2.520787	2.130014	1.882380
H	2.178559	1.840981	2.894974
H	2.446016	3.235078	1.808137
H	3.597818	1.871604	1.808230
H	2.628997	2.221299	-1.097114
$end

$rem
JOBTYPE		SP
EXCHANGE	HF
CORRELATION	pRIMP2
BASIS		cc-pvtz
METHOD		rimp2
AUX_BASIS	rimp2-cc-pvtz
SOLVENT_METHOD	PCM
PURECART	11111
SYMMETRY	false
MEM_TOTAL	110000
SCF_CONVERGENCE = 6
THRESH=10
GUI = 2
$end

$solvent
dielectric 4.90
$end
--------------------------------------------------------------

             Standard Nuclear Orientation (Angstroms)
    I     Atom           X                Y                Z
 ----------------------------------------------------------------
    1      C      -0.5542670000    -3.8878000000    -0.4665100000
    2      C       0.5071210000    -3.7014560000     0.4241730000
    3      C       0.8315750000    -2.3451700000     0.6972440000
    4      H       1.0483370000    -4.5452330000     0.8777890000
    5      C       0.0000000000    -1.4501350000     0.0000000000
    6      S      -1.1699110000    -2.3213340000    -0.9821500000
    7      C       1.9393740000    -1.9344390000     1.6270240000
    8      H       2.4488940000    -2.8197990000     2.0540100000
    9      H       1.5615450000    -1.3262100000     2.4752990000
   10      H       2.7087730000    -1.3253740000     1.1080510000
   11      H      -1.0009440000    -4.8153260000    -0.8418630000
   12      C       0.0000000000     0.0000000000     0.0000000000
   13      C       0.6450240000     0.5452620000     1.1130200000
   14      C       1.7075540000     1.4429540000     0.8205780000
   15      H       0.3485870000     0.2947740000     2.1428810000
   16      C       1.8972270000     1.6029640000    -0.5635880000
   17      S       0.7411550000     0.6267220000    -1.4647480000
   18      C       2.5207870000     2.1300140000     1.8823800000
   19      H       2.1785590000     1.8409810000     2.8949740000
   20      H       2.4460160000     3.2350780000     1.8081370000
   21      H       3.5978180000     1.8716040000     1.8082300000
   22      H       2.6289970000     2.2212990000    -1.0971140000
 ----------------------------------------------------------------

   10   -1179.6357181995      9.54e-07  Convergence criterion met
 Total energy in the final basis set =    -1179.6357181995
        RIMP2         total energy =     -1181.6282197485 a.u.

                    Orbital Energies (a.u.)
 --------------------------------------------------------------

 Alpha MOs
 -- Occupied --
-91.9826 -91.9765 -11.2824 -11.2751 -11.2656 -11.2604 -11.2565 -11.2531
-11.2450 -11.2394 -11.2316 -11.2264  -8.9829  -8.9767  -6.6637  -6.6630
 -6.6625  -6.6577  -6.6571  -6.6565  -1.1860  -1.1469  -1.0436  -1.0224
 -0.9967  -0.9528  -0.9137  -0.8920  -0.7954  -0.7522  -0.7359  -0.6993
 -0.6556  -0.6184  -0.5910  -0.5829  -0.5697  -0.5626  -0.5487  -0.5381
 -0.5256  -0.5245  -0.5092  -0.4889  -0.4720  -0.4630  -0.4544  -0.3490
 -0.3401  -0.3377  -0.2791

          Ground-State Mulliken Net Atomic Charges

     Atom                 Charge (a.u.)
  ----------------------------------------
      1 C                    -0.216276
      2 C                    -0.261386
      3 C                     0.045962
      4 H                     0.183955
      5 C                     0.003921
      6 S                     0.000118
      7 C                    -0.307307
      8 H                     0.115774
      9 H                     0.107415
     10 H                     0.116825
     11 H                     0.201875
     12 C                    -0.117869
     13 C                    -0.168727
     14 C                     0.003532
     15 H                     0.191271
     16 C                    -0.192430
     17 S                     0.037224
     18 C                    -0.273532
     19 H                     0.104356
     20 H                     0.115911
     21 H                     0.107354
     22 H                     0.202034
  ----------------------------------------
  Sum of atomic charges =     0.000000

                    Cartesian Multipole Moments
 -----------------------------------------------------------------
    Charge (ESU x 10^10)
                -0.0000
    Dipole Moment (Debye)
         X       3.4101      Y       0.7664      Z       2.7184
       Tot       4.4278
    Quadrupole Moments (Debye-Ang)
        XX     -81.8934     XY       4.2764     YY     -77.0807
        XZ       3.6762     YZ      -0.8545     ZZ     -83.7540

 Total job time:  53.44s(wall), 1790.35s(cpu)
        *  Thank you very much for using Q-Chem.  Have a nice day.  *
