 Q-Chem 5.4, Q-Chem, Inc., Pleasanton, CA (2021)
 Q-Chem 5.4.0 for Intel X86 EM64T Linux

User input:
--------------------------------------------------------------
$molecule
0 1
C	0.361285	-3.887800	0.627947
C	-0.331462	-3.701456	-0.572038
C	-0.542953	-2.345170	-0.939610
H	-0.684893	-4.545233	-1.183405
C	0.000000	-1.450135	0.000000
S	0.763441	-2.321334	1.323052
C	-1.265941	-1.934439	-2.192207
H	-1.598695	-2.819799	-2.767709
H	-0.620770	-1.326210	-2.860100
H	-2.166438	-1.325374	-1.967682
H	0.652645	-4.815326	1.133436
C	0.000000	0.000000	0.000000
C	0.419634	0.732990	1.113020
C	1.111057	1.939951	0.820578
H	0.226746	0.396221	2.142881
C	1.234565	2.155183	-0.563588
S	0.482106	0.842416	-1.464748
C	1.640257	2.863718	1.882380
H	1.417524	2.475067	2.894974
H	1.192042	3.876565	1.808137
H	2.740717	2.989259	1.808230
H	1.710720	2.986508	-1.097114
$end

$rem
JOBTYPE		SP
EXCHANGE	HF
CORRELATION	pRIMP2
BASIS		cc-pvtz
METHOD		rimp2
AUX_BASIS	rimp2-cc-pvtz
SOLVENT_METHOD	PCM
PURECART	11111
SYMMETRY	false
MEM_TOTAL	110000
SCF_CONVERGENCE = 6
THRESH=10
GUI = 2
$end

$solvent
dielectric 4.90
$end
--------------------------------------------------------------

             Standard Nuclear Orientation (Angstroms)
    I     Atom           X                Y                Z
 ----------------------------------------------------------------
    1      C       0.3612850000    -3.8878000000     0.6279470000
    2      C      -0.3314620000    -3.7014560000    -0.5720380000
    3      C      -0.5429530000    -2.3451700000    -0.9396100000
    4      H      -0.6848930000    -4.5452330000    -1.1834050000
    5      C       0.0000000000    -1.4501350000     0.0000000000
    6      S       0.7634410000    -2.3213340000     1.3230520000
    7      C      -1.2659410000    -1.9344390000    -2.1922070000
    8      H      -1.5986950000    -2.8197990000    -2.7677090000
    9      H      -0.6207700000    -1.3262100000    -2.8601000000
   10      H      -2.1664380000    -1.3253740000    -1.9676820000
   11      H       0.6526450000    -4.8153260000     1.1334360000
   12      C       0.0000000000     0.0000000000     0.0000000000
   13      C       0.4196340000     0.7329900000     1.1130200000
   14      C       1.1110570000     1.9399510000     0.8205780000
   15      H       0.2267460000     0.3962210000     2.1428810000
   16      C       1.2345650000     2.1551830000    -0.5635880000
   17      S       0.4821060000     0.8424160000    -1.4647480000
   18      C       1.6402570000     2.8637180000     1.8823800000
   19      H       1.4175240000     2.4750670000     2.8949740000
   20      H       1.1920420000     3.8765650000     1.8081370000
   21      H       2.7407170000     2.9892590000     1.8082300000
   22      H       1.7107200000     2.9865080000    -1.0971140000
 ----------------------------------------------------------------

   10   -1179.6712359472      5.21e-07  Convergence criterion met
 Total energy in the final basis set =    -1179.6712359472
        RIMP2         total energy =     -1181.6546193259 a.u.

                    Orbital Energies (a.u.)
 --------------------------------------------------------------

 Alpha MOs
 -- Occupied --
-91.9852 -91.9843 -11.2774 -11.2760 -11.2702 -11.2692 -11.2532 -11.2481
-11.2451 -11.2417 -11.2297 -11.2292  -8.9851  -8.9840  -6.6660  -6.6654
 -6.6649  -6.6648  -6.6643  -6.6637  -1.1818  -1.1493  -1.0417  -1.0234
 -0.9992  -0.9513  -0.9146  -0.8937  -0.7984  -0.7632  -0.7227  -0.6931
 -0.6613  -0.6172  -0.5835  -0.5793  -0.5777  -0.5700  -0.5515  -0.5338
 -0.5253  -0.5187  -0.5091  -0.4966  -0.4837  -0.4680  -0.4545  -0.3597
 -0.3435  -0.3407  -0.2725

          Ground-State Mulliken Net Atomic Charges

     Atom                 Charge (a.u.)
  ----------------------------------------
      1 C                    -0.221271
      2 C                    -0.247015
      3 C                     0.032797
      4 H                     0.184424
      5 C                    -0.012614
      6 S                     0.015315
      7 C                    -0.308196
      8 H                     0.112348
      9 H                     0.111605
     10 H                     0.115716
     11 H                     0.204404
     12 C                     0.025964
     13 C                    -0.300368
     14 C                     0.055658
     15 H                     0.186025
     16 C                    -0.245617
     17 S                     0.039127
     18 C                    -0.267796
     19 H                     0.103400
     20 H                     0.108391
     21 H                     0.108993
     22 H                     0.198712
  ----------------------------------------
  Sum of atomic charges =     0.000000

                    Cartesian Multipole Moments
 -----------------------------------------------------------------
    Charge (ESU x 10^10)
                -0.0000
    Dipole Moment (Debye)
         X       0.3348      Y       0.4679      Z       0.1922
       Tot       0.6066
    Quadrupole Moments (Debye-Ang)
        XX     -88.2495     XY       6.1436     YY     -71.9583
        XZ       3.4224     YZ       3.0267     ZZ     -81.5640

 Total job time:  50.13s(wall), 1697.30s(cpu)
        *  Thank you very much for using Q-Chem.  Have a nice day.  *
