 Q-Chem 5.4, Q-Chem, Inc., Pleasanton, CA (2021)
 Q-Chem 5.4.0 for Intel X86 EM64T Linux

User input:
--------------------------------------------------------------
$molecule
0 1
C	0.680396	-3.887800	0.248806
C	-0.621614	-3.701456	-0.225147
C	-1.019896	-2.345170	-0.370780
H	-1.285337	-4.545233	-0.466300
C	0.000000	-1.450135	0.000000
S	1.435271	-2.321334	0.522786
C	-2.378891	-1.934439	-0.865597
H	-3.003720	-2.819799	-1.092567
H	-2.313975	-1.326210	-1.791940
H	-2.924390	-1.325374	-0.114772
H	1.228514	-4.815326	0.448750
C	0.000000	0.000000	0.000000
C	0.285976	0.794723	1.113020
C	0.757308	2.103412	0.820578
H	0.154498	0.429575	2.142881
C	0.841565	2.336821	-0.563588
S	0.328498	0.913334	-1.464748
C	1.118059	3.105040	1.882380
H	0.966197	2.683616	2.894974
H	0.500773	4.024668	1.808137
H	2.180000	3.419766	1.808230
H	1.166129	3.238200	-1.097114
$end

$rem
JOBTYPE		SP
EXCHANGE	HF
CORRELATION	pRIMP2
BASIS		cc-pvtz
METHOD		rimp2
AUX_BASIS	rimp2-cc-pvtz
SOLVENT_METHOD	PCM
PURECART	11111
SYMMETRY	false
MEM_TOTAL	110000
SCF_CONVERGENCE = 6
THRESH=10
GUI = 2
$end

$solvent
dielectric 4.90
$end
--------------------------------------------------------------

             Standard Nuclear Orientation (Angstroms)
    I     Atom           X                Y                Z
 ----------------------------------------------------------------
    1      C       0.6803960000    -3.8878000000     0.2488060000
    2      C      -0.6216140000    -3.7014560000    -0.2251470000
    3      C      -1.0198960000    -2.3451700000    -0.3707800000
    4      H      -1.2853370000    -4.5452330000    -0.4663000000
    5      C       0.0000000000    -1.4501350000     0.0000000000
    6      S       1.4352710000    -2.3213340000     0.5227860000
    7      C      -2.3788910000    -1.9344390000    -0.8655970000
    8      H      -3.0037200000    -2.8197990000    -1.0925670000
    9      H      -2.3139750000    -1.3262100000    -1.7919400000
   10      H      -2.9243900000    -1.3253740000    -0.1147720000
   11      H       1.2285140000    -4.8153260000     0.4487500000
   12      C       0.0000000000     0.0000000000     0.0000000000
   13      C       0.2859760000     0.7947230000     1.1130200000
   14      C       0.7573080000     2.1034120000     0.8205780000
   15      H       0.1544980000     0.4295750000     2.1428810000
   16      C       0.8415650000     2.3368210000    -0.5635880000
   17      S       0.3284980000     0.9133340000    -1.4647480000
   18      C       1.1180590000     3.1050400000     1.8823800000
   19      H       0.9661970000     2.6836160000     2.8949740000
   20      H       0.5007730000     4.0246680000     1.8081370000
   21      H       2.1800000000     3.4197660000     1.8082300000
   22      H       1.1661290000     3.2382000000    -1.0971140000
 ----------------------------------------------------------------

   10   -1179.6798886976      5.07e-07  Convergence criterion met
 Total energy in the final basis set =    -1179.6798886976
        RIMP2         total energy =     -1181.6589157427 a.u.

                    Orbital Energies (a.u.)
 --------------------------------------------------------------

 Alpha MOs
 -- Occupied --
-91.9852 -91.9848 -11.2765 -11.2727 -11.2721 -11.2673 -11.2515 -11.2512
-11.2433 -11.2415 -11.2292 -11.2289  -8.9847  -8.9844  -6.6655  -6.6653
 -6.6650  -6.6647  -6.6644  -6.6641  -1.1786  -1.1493  -1.0395  -1.0224
 -0.9974  -0.9526  -0.9136  -0.8922  -0.7991  -0.7560  -0.7279  -0.6930
 -0.6617  -0.6169  -0.5826  -0.5791  -0.5715  -0.5693  -0.5511  -0.5324
 -0.5273  -0.5187  -0.5074  -0.4933  -0.4854  -0.4655  -0.4616  -0.3464
 -0.3379  -0.3291  -0.2962

          Ground-State Mulliken Net Atomic Charges

     Atom                 Charge (a.u.)
  ----------------------------------------
      1 C                    -0.207755
      2 C                    -0.252715
      3 C                     0.049868
      4 H                     0.184240
      5 C                    -0.049223
      6 S                     0.027106
      7 C                    -0.284433
      8 H                     0.106991
      9 H                     0.109187
     10 H                     0.110789
     11 H                     0.204132
     12 C                     0.006078
     13 C                    -0.266664
     14 C                     0.039269
     15 H                     0.186946
     16 C                    -0.237981
     17 S                     0.026224
     18 C                    -0.269741
     19 H                     0.102960
     20 H                     0.107789
     21 H                     0.108336
     22 H                     0.198596
  ----------------------------------------
  Sum of atomic charges =     0.000000

                    Cartesian Multipole Moments
 -----------------------------------------------------------------
    Charge (ESU x 10^10)
                -0.0000
    Dipole Moment (Debye)
         X      -0.7173      Y       0.2954      Z       0.9714
       Tot       1.2431
    Quadrupole Moments (Debye-Ang)
        XX     -85.6271     XY       5.6310     YY     -70.0856
        XZ       2.5352     YZ       1.8196     ZZ     -85.8965

 Total job time:  66.83s(wall), 1747.41s(cpu)
        *  Thank you very much for using Q-Chem.  Have a nice day.  *
