 Q-Chem 5.4, Q-Chem, Inc., Pleasanton, CA (2021)
 Q-Chem 5.4.0 for Intel X86 EM64T Linux

User input:
--------------------------------------------------------------
$molecule
0 1
C	0.464838	-3.887800	0.555670
C	-0.425760	-3.701456	-0.505790
C	-0.697866	-2.345170	-0.831053
H	-0.879984	-4.545233	-1.046496
C	0.000000	-1.450135	0.000000
S	0.981588	-2.321334	1.170382
C	-1.627381	-1.934439	-1.939074
H	-2.055015	-2.819799	-2.448051
H	-1.107991	-1.326210	-2.708853
H	-2.475210	-1.325374	-1.561590
H	0.839549	-4.815326	1.002886
C	0.000000	0.000000	0.000000
C	0.354153	0.766774	1.113020
C	0.937751	2.029404	0.820578
H	0.191350	0.414475	2.142881
C	1.042030	2.254581	-0.563588
S	0.406851	0.881228	-1.464748
C	1.384426	2.995779	1.882380
H	1.196413	2.589194	2.894974
H	0.849641	3.965707	1.808137
H	2.469756	3.216753	1.808230
H	1.443919	3.124243	-1.097114
$end

$rem
JOBTYPE		SP
EXCHANGE	HF
CORRELATION	pRIMP2
BASIS		cc-pvtz
METHOD		rimp2
AUX_BASIS	rimp2-cc-pvtz
SOLVENT_METHOD	PCM
PURECART	11111
SYMMETRY	false
MEM_TOTAL	110000
SCF_CONVERGENCE = 6
THRESH=10
GUI = 2
$end

$solvent
dielectric 4.90
$end
--------------------------------------------------------------

             Standard Nuclear Orientation (Angstroms)
    I     Atom           X                Y                Z
 ----------------------------------------------------------------
    1      C       0.4648380000    -3.8878000000     0.5556700000
    2      C      -0.4257600000    -3.7014560000    -0.5057900000
    3      C      -0.6978660000    -2.3451700000    -0.8310530000
    4      H      -0.8799840000    -4.5452330000    -1.0464960000
    5      C       0.0000000000    -1.4501350000     0.0000000000
    6      S       0.9815880000    -2.3213340000     1.1703820000
    7      C      -1.6273810000    -1.9344390000    -1.9390740000
    8      H      -2.0550150000    -2.8197990000    -2.4480510000
    9      H      -1.1079910000    -1.3262100000    -2.7088530000
   10      H      -2.4752100000    -1.3253740000    -1.5615900000
   11      H       0.8395490000    -4.8153260000     1.0028860000
   12      C       0.0000000000     0.0000000000     0.0000000000
   13      C       0.3541530000     0.7667740000     1.1130200000
   14      C       0.9377510000     2.0294040000     0.8205780000
   15      H       0.1913500000     0.4144750000     2.1428810000
   16      C       1.0420300000     2.2545810000    -0.5635880000
   17      S       0.4068510000     0.8812280000    -1.4647480000
   18      C       1.3844260000     2.9957790000     1.8823800000
   19      H       1.1964130000     2.5891940000     2.8949740000
   20      H       0.8496410000     3.9657070000     1.8081370000
   21      H       2.4697560000     3.2167530000     1.8082300000
   22      H       1.4439190000     3.1242430000    -1.0971140000
 ----------------------------------------------------------------

   10   -1179.6769139381      5.20e-07  Convergence criterion met
 Total energy in the final basis set =    -1179.6769139381
        RIMP2         total energy =     -1181.6582221489 a.u.

                    Orbital Energies (a.u.)
 --------------------------------------------------------------

 Alpha MOs
 -- Occupied --
-91.9854 -91.9852 -11.2782 -11.2752 -11.2706 -11.2685 -11.2525 -11.2496
-11.2436 -11.2420 -11.2295 -11.2294  -8.9850  -8.9849  -6.6659  -6.6658
 -6.6653  -6.6652  -6.6647  -6.6646  -1.1806  -1.1495  -1.0409  -1.0232
 -0.9988  -0.9517  -0.9146  -0.8932  -0.7989  -0.7615  -0.7236  -0.6930
 -0.6617  -0.6169  -0.5832  -0.5791  -0.5758  -0.5698  -0.5515  -0.5336
 -0.5256  -0.5187  -0.5084  -0.4961  -0.4851  -0.4680  -0.4570  -0.3540
 -0.3424  -0.3416  -0.2773

          Ground-State Mulliken Net Atomic Charges

     Atom                 Charge (a.u.)
  ----------------------------------------
      1 C                    -0.216574
      2 C                    -0.248157
      3 C                     0.033958
      4 H                     0.184573
      5 C                    -0.018098
      6 S                     0.021101
      7 C                    -0.299492
      8 H                     0.110722
      9 H                     0.111175
     10 H                     0.113775
     11 H                     0.204381
     12 C                     0.029533
     13 C                    -0.310640
     14 C                     0.057070
     15 H                     0.187854
     16 C                    -0.246243
     17 S                     0.035235
     18 C                    -0.268862
     19 H                     0.103323
     20 H                     0.108157
     21 H                     0.108957
     22 H                     0.198251
  ----------------------------------------
  Sum of atomic charges =     0.000000

                    Cartesian Multipole Moments
 -----------------------------------------------------------------
    Charge (ESU x 10^10)
                -0.0000
    Dipole Moment (Debye)
         X      -0.0889      Y       0.3601      Z       0.3380
       Tot       0.5018
    Quadrupole Moments (Debye-Ang)
        XX     -88.0110     XY       5.7924     YY     -70.8740
        XZ       3.7687     YZ       2.7755     ZZ     -82.6972

 Total job time:  53.40s(wall), 1781.77s(cpu)
        *  Thank you very much for using Q-Chem.  Have a nice day.  *
