 Q-Chem 5.4, Q-Chem, Inc., Pleasanton, CA (2021)
 Q-Chem 5.4.0 for Intel X86 EM64T Linux

User input:
--------------------------------------------------------------
$molecule
0 1
C	0.554267	-3.887800	0.466510
C	-0.507121	-3.701456	-0.424173
C	-0.831575	-2.345170	-0.697244
H	-1.048337	-4.545233	-0.877789
C	0.000000	-1.450135	0.000000
S	1.169911	-2.321334	0.982150
C	-1.939374	-1.934439	-1.627024
H	-2.448894	-2.819799	-2.054010
H	-1.561545	-1.326210	-2.475299
H	-2.708773	-1.325374	-1.108051
H	1.000944	-4.815326	0.841863
C	0.000000	0.000000	0.000000
C	0.354153	0.766774	1.113020
C	0.937751	2.029404	0.820578
H	0.191350	0.414475	2.142881
C	1.042030	2.254581	-0.563588
S	0.406851	0.881228	-1.464748
C	1.384426	2.995779	1.882380
H	1.196413	2.589194	2.894974
H	0.849641	3.965707	1.808137
H	2.469756	3.216753	1.808230
H	1.443919	3.124243	-1.097114
$end

$rem
JOBTYPE		SP
EXCHANGE	HF
CORRELATION	pRIMP2
BASIS		cc-pvtz
METHOD		rimp2
AUX_BASIS	rimp2-cc-pvtz
SOLVENT_METHOD	PCM
PURECART	11111
SYMMETRY	false
MEM_TOTAL	110000
SCF_CONVERGENCE = 6
THRESH=10
GUI = 2
$end

$solvent
dielectric 4.90
$end
--------------------------------------------------------------

             Standard Nuclear Orientation (Angstroms)
    I     Atom           X                Y                Z
 ----------------------------------------------------------------
    1      C       0.5542670000    -3.8878000000     0.4665100000
    2      C      -0.5071210000    -3.7014560000    -0.4241730000
    3      C      -0.8315750000    -2.3451700000    -0.6972440000
    4      H      -1.0483370000    -4.5452330000    -0.8777890000
    5      C       0.0000000000    -1.4501350000     0.0000000000
    6      S       1.1699110000    -2.3213340000     0.9821500000
    7      C      -1.9393740000    -1.9344390000    -1.6270240000
    8      H      -2.4488940000    -2.8197990000    -2.0540100000
    9      H      -1.5615450000    -1.3262100000    -2.4752990000
   10      H      -2.7087730000    -1.3253740000    -1.1080510000
   11      H       1.0009440000    -4.8153260000     0.8418630000
   12      C       0.0000000000     0.0000000000     0.0000000000
   13      C       0.3541530000     0.7667740000     1.1130200000
   14      C       0.9377510000     2.0294040000     0.8205780000
   15      H       0.1913500000     0.4144750000     2.1428810000
   16      C       1.0420300000     2.2545810000    -0.5635880000
   17      S       0.4068510000     0.8812280000    -1.4647480000
   18      C       1.3844260000     2.9957790000     1.8823800000
   19      H       1.1964130000     2.5891940000     2.8949740000
   20      H       0.8496410000     3.9657070000     1.8081370000
   21      H       2.4697560000     3.2167530000     1.8082300000
   22      H       1.4439190000     3.1242430000    -1.0971140000
 ----------------------------------------------------------------

   10   -1179.6769099641      5.16e-07  Convergence criterion met
 Total energy in the final basis set =    -1179.6769099641
        RIMP2         total energy =     -1181.6576591609 a.u.

                    Orbital Energies (a.u.)
 --------------------------------------------------------------

 Alpha MOs
 -- Occupied --
-91.9854 -91.9850 -11.2769 -11.2741 -11.2708 -11.2687 -11.2521 -11.2498
-11.2439 -11.2417 -11.2294 -11.2291  -8.9849  -8.9847  -6.6657  -6.6656
 -6.6652  -6.6650  -6.6646  -6.6644  -1.1800  -1.1494  -1.0405  -1.0227
 -0.9984  -0.9518  -0.9143  -0.8927  -0.7988  -0.7597  -0.7252  -0.6927
 -0.6615  -0.6170  -0.5829  -0.5792  -0.5739  -0.5696  -0.5512  -0.5333
 -0.5261  -0.5185  -0.5079  -0.4951  -0.4844  -0.4673  -0.4589  -0.3467
 -0.3437  -0.3398  -0.2825

          Ground-State Mulliken Net Atomic Charges

     Atom                 Charge (a.u.)
  ----------------------------------------
      1 C                    -0.214324
      2 C                    -0.249347
      3 C                     0.036094
      4 H                     0.184346
      5 C                    -0.024575
      6 S                     0.024495
      7 C                    -0.291119
      8 H                     0.109189
      9 H                     0.109541
     10 H                     0.111960
     11 H                     0.204125
     12 C                     0.019692
     13 C                    -0.305882
     14 C                     0.055307
     15 H                     0.189620
     16 C                    -0.240988
     17 S                     0.032386
     18 C                    -0.268911
     19 H                     0.103234
     20 H                     0.108006
     21 H                     0.108721
     22 H                     0.198430
  ----------------------------------------
  Sum of atomic charges =     0.000000

                    Cartesian Multipole Moments
 -----------------------------------------------------------------
    Charge (ESU x 10^10)
                -0.0000
    Dipole Moment (Debye)
         X      -0.2618      Y       0.3567      Z       0.5314
       Tot       0.6915
    Quadrupole Moments (Debye-Ang)
        XX     -86.8779     XY       6.0298     YY     -70.8632
        XZ       3.7491     YZ       2.4605     ZZ     -83.8757

 Total job time:  58.15s(wall), 1814.57s(cpu)
        *  Thank you very much for using Q-Chem.  Have a nice day.  *
