 Q-Chem 5.4, Q-Chem, Inc., Pleasanton, CA (2021)
 Q-Chem 5.4.0 for Intel X86 EM64T Linux

User input:
--------------------------------------------------------------
$molecule
0 1
C	-0.681143	-3.887800	0.246754
C	0.620906	-3.701456	-0.227093
C	1.019618	-2.345170	-0.371543
H	1.284357	-4.545233	-0.468992
C	0.000000	-1.450135	0.000000
S	-1.435522	-2.321334	0.522097
C	2.378731	-1.934439	-0.866035
H	3.003272	-2.819799	-1.093799
H	2.924444	-1.326210	-0.114688
H	2.313987	-1.325374	-1.791841
H	-1.229547	-4.815326	0.445911
C	0.000000	0.000000	0.000000
C	0.285976	0.794723	1.113020
C	0.757308	2.103412	0.820578
H	0.154498	0.429575	2.142881
C	0.841565	2.336821	-0.563588
S	0.328498	0.913334	-1.464748
C	1.118059	3.105040	1.882380
H	0.966197	2.683616	2.894974
H	0.500773	4.024668	1.808137
H	2.180000	3.419766	1.808230
H	1.166129	3.238200	-1.097114
$end

$rem
JOBTYPE		SP
EXCHANGE	HF
CORRELATION	pRIMP2
BASIS		cc-pvtz
METHOD		rimp2
AUX_BASIS	rimp2-cc-pvtz
SOLVENT_METHOD	PCM
PURECART	11111
SYMMETRY	false
MEM_TOTAL	110000
SCF_CONVERGENCE = 6
THRESH=10
GUI = 2
$end

$solvent
dielectric 4.90
$end
--------------------------------------------------------------

             Standard Nuclear Orientation (Angstroms)
    I     Atom           X                Y                Z
 ----------------------------------------------------------------
    1      C      -0.6811430000    -3.8878000000     0.2467540000
    2      C       0.6209060000    -3.7014560000    -0.2270930000
    3      C       1.0196180000    -2.3451700000    -0.3715430000
    4      H       1.2843570000    -4.5452330000    -0.4689920000
    5      C       0.0000000000    -1.4501350000     0.0000000000
    6      S      -1.4355220000    -2.3213340000     0.5220970000
    7      C       2.3787310000    -1.9344390000    -0.8660350000
    8      H       3.0032720000    -2.8197990000    -1.0937990000
    9      H       2.9244440000    -1.3262100000    -0.1146880000
   10      H       2.3139870000    -1.3253740000    -1.7918410000
   11      H      -1.2295470000    -4.8153260000     0.4459110000
   12      C       0.0000000000     0.0000000000     0.0000000000
   13      C       0.2859760000     0.7947230000     1.1130200000
   14      C       0.7573080000     2.1034120000     0.8205780000
   15      H       0.1544980000     0.4295750000     2.1428810000
   16      C       0.8415650000     2.3368210000    -0.5635880000
   17      S       0.3284980000     0.9133340000    -1.4647480000
   18      C       1.1180590000     3.1050400000     1.8823800000
   19      H       0.9661970000     2.6836160000     2.8949740000
   20      H       0.5007730000     4.0246680000     1.8081370000
   21      H       2.1800000000     3.4197660000     1.8082300000
   22      H       1.1661290000     3.2382000000    -1.0971140000
 ----------------------------------------------------------------

   10   -1179.6781188520      5.22e-07  Convergence criterion met
 Total energy in the final basis set =    -1179.6781188520
        RIMP2         total energy =     -1181.6587783472 a.u.

                    Orbital Energies (a.u.)
 --------------------------------------------------------------

 Alpha MOs
 -- Occupied --
-91.9853 -91.9839 -11.2770 -11.2745 -11.2706 -11.2679 -11.2516 -11.2515
-11.2446 -11.2418 -11.2295 -11.2274  -8.9849  -8.9835  -6.6657  -6.6652
 -6.6646  -6.6644  -6.6638  -6.6632  -1.1788  -1.1493  -1.0401  -1.0212
 -0.9976  -0.9537  -0.9129  -0.8924  -0.7984  -0.7560  -0.7285  -0.6950
 -0.6609  -0.6168  -0.5817  -0.5787  -0.5729  -0.5696  -0.5510  -0.5311
 -0.5280  -0.5194  -0.5100  -0.4927  -0.4836  -0.4651  -0.4596  -0.3461
 -0.3420  -0.3268  -0.2948

          Ground-State Mulliken Net Atomic Charges

     Atom                 Charge (a.u.)
  ----------------------------------------
      1 C                    -0.216182
      2 C                    -0.250919
      3 C                     0.057092
      4 H                     0.184950
      5 C                    -0.030851
      6 S                     0.024802
      7 C                    -0.285431
      8 H                     0.108990
      9 H                     0.111971
     10 H                     0.112046
     11 H                     0.203478
     12 C                    -0.045129
     13 C                    -0.223461
     14 C                     0.020384
     15 H                     0.186255
     16 C                    -0.231134
     17 S                     0.025789
     18 C                    -0.270148
     19 H                     0.103065
     20 H                     0.108272
     21 H                     0.107641
     22 H                     0.198521
  ----------------------------------------
  Sum of atomic charges =     0.000000

                    Cartesian Multipole Moments
 -----------------------------------------------------------------
    Charge (ESU x 10^10)
                -0.0000
    Dipole Moment (Debye)
         X       2.1343      Y       0.4441      Z       0.9533
       Tot       2.3794
    Quadrupole Moments (Debye-Ang)
        XX     -85.8111     XY       1.4393     YY     -70.5610
        XZ      -1.7703     YZ       1.8543     ZZ     -85.8187

 Total job time:  51.11s(wall), 1756.52s(cpu)
        *  Thank you very much for using Q-Chem.  Have a nice day.  *
