 Q-Chem 5.4, Q-Chem, Inc., Pleasanton, CA (2021)
 Q-Chem 5.4.0 for Intel X86 EM64T Linux

User input:
--------------------------------------------------------------
$molecule
0 1
C	-0.248806	-3.887800	0.680396
C	0.225147	-3.701456	-0.621614
C	0.370780	-2.345170	-1.019896
H	0.466300	-4.545233	-1.285337
C	0.000000	-1.450135	0.000000
S	-0.522786	-2.321334	1.435271
C	0.865597	-1.934439	-2.378891
H	1.092567	-2.819799	-3.003720
H	1.791940	-1.326210	-2.313975
H	0.114772	-1.325374	-2.924390
H	-0.448750	-4.815326	1.228514
C	0.000000	0.000000	0.000000
C	0.729909	0.424971	1.113020
C	1.932179	1.124518	0.820578
H	0.394478	0.229765	2.142881
C	2.146756	1.249161	-0.563588
S	0.838724	0.488500	-1.464748
C	2.852364	1.659924	1.882380
H	2.465145	1.434710	2.894974
H	2.970621	2.761183	1.808137
H	3.868160	1.218416	1.808230
H	2.974781	1.731032	-1.097114
$end

$rem
JOBTYPE		SP
EXCHANGE	HF
CORRELATION	pRIMP2
BASIS		cc-pvtz
METHOD		rimp2
AUX_BASIS	rimp2-cc-pvtz
SOLVENT_METHOD	PCM
PURECART	11111
SYMMETRY	false
MEM_TOTAL	110000
SCF_CONVERGENCE = 6
THRESH=10
GUI = 2
$end

$solvent
dielectric 4.90
$end
--------------------------------------------------------------

             Standard Nuclear Orientation (Angstroms)
    I     Atom           X                Y                Z
 ----------------------------------------------------------------
    1      C      -0.2488060000    -3.8878000000     0.6803960000
    2      C       0.2251470000    -3.7014560000    -0.6216140000
    3      C       0.3707800000    -2.3451700000    -1.0198960000
    4      H       0.4663000000    -4.5452330000    -1.2853370000
    5      C       0.0000000000    -1.4501350000     0.0000000000
    6      S      -0.5227860000    -2.3213340000     1.4352710000
    7      C       0.8655970000    -1.9344390000    -2.3788910000
    8      H       1.0925670000    -2.8197990000    -3.0037200000
    9      H       1.7919400000    -1.3262100000    -2.3139750000
   10      H       0.1147720000    -1.3253740000    -2.9243900000
   11      H      -0.4487500000    -4.8153260000     1.2285140000
   12      C       0.0000000000     0.0000000000     0.0000000000
   13      C       0.7299090000     0.4249710000     1.1130200000
   14      C       1.9321790000     1.1245180000     0.8205780000
   15      H       0.3944780000     0.2297650000     2.1428810000
   16      C       2.1467560000     1.2491610000    -0.5635880000
   17      S       0.8387240000     0.4885000000    -1.4647480000
   18      C       2.8523640000     1.6599240000     1.8823800000
   19      H       2.4651450000     1.4347100000     2.8949740000
   20      H       2.9706210000     2.7611830000     1.8081370000
   21      H       3.8681600000     1.2184160000     1.8082300000
   22      H       2.9747810000     1.7310320000    -1.0971140000
 ----------------------------------------------------------------

   11   -1179.5852529945      6.54e-07  Convergence criterion met
 Total energy in the final basis set =    -1179.5852529945
        RIMP2         total energy =     -1181.5889667894 a.u.

                    Orbital Energies (a.u.)
 --------------------------------------------------------------

 Alpha MOs
 -- Occupied --
-91.9800 -91.9741 -11.2883 -11.2827 -11.2630 -11.2582 -11.2568 -11.2533
-11.2381 -11.2335 -11.2310 -11.2208  -8.9821  -8.9746  -6.6624  -6.6618
 -6.6614  -6.6557  -6.6551  -6.6544  -1.1934  -1.1444  -1.0478  -1.0259
 -0.9968  -0.9499  -0.9098  -0.8975  -0.7920  -0.7664  -0.7258  -0.6944
 -0.6543  -0.6213  -0.5922  -0.5854  -0.5765  -0.5694  -0.5496  -0.5358
 -0.5242  -0.5221  -0.5111  -0.4955  -0.4682  -0.4517  -0.4402  -0.3680
 -0.3383  -0.3292  -0.2622

          Ground-State Mulliken Net Atomic Charges

     Atom                 Charge (a.u.)
  ----------------------------------------
      1 C                    -0.240832
      2 C                    -0.248751
      3 C                    -0.003347
      4 H                     0.183712
      5 C                     0.001103
      6 S                    -0.023985
      7 C                    -0.266523
      8 H                     0.099361
      9 H                     0.112032
     10 H                     0.102482
     11 H                     0.199988
     12 C                    -0.107558
     13 C                    -0.098522
     14 C                    -0.025790
     15 H                     0.187907
     16 C                    -0.184634
     17 S                     0.059282
     18 C                    -0.264859
     19 H                     0.103590
     20 H                     0.107098
     21 H                     0.105407
     22 H                     0.202835
  ----------------------------------------
  Sum of atomic charges =     0.000000

                    Cartesian Multipole Moments
 -----------------------------------------------------------------
    Charge (ESU x 10^10)
                -0.0000
    Dipole Moment (Debye)
         X       3.4625      Y       1.1920      Z      -0.1358
       Tot       3.6644
    Quadrupole Moments (Debye-Ang)
        XX     -82.1495     XY       4.5670     YY     -82.3361
        XZ      -1.7654     YZ       2.7838     ZZ     -80.3194

 Total job time:  57.39s(wall), 1915.64s(cpu)
        *  Thank you very much for using Q-Chem.  Have a nice day.  *
