 Q-Chem 5.4, Q-Chem, Inc., Pleasanton, CA (2021)
 Q-Chem 5.4.0 for Intel X86 EM64T Linux

User input:
--------------------------------------------------------------
$molecule
0 1
C	-0.466510	-3.887800	0.554267
C	0.424173	-3.701456	-0.507121
C	0.697244	-2.345170	-0.831575
H	0.877789	-4.545233	-1.048337
C	-0.000000	-1.450135	-0.000000
S	-0.982150	-2.321334	1.169911
C	1.627024	-1.934439	-1.939374
H	2.054010	-2.819799	-2.448894
H	2.475299	-1.326210	-1.561545
H	1.108051	-1.325374	-2.708773
H	-0.841863	-4.815326	1.000944
C	0.000000	0.000000	0.000000
C	0.070542	0.841660	1.113020
C	0.187101	2.227746	0.820578
H	0.038051	0.454925	2.142881
C	0.208076	2.475009	-0.563588
S	0.080917	0.967235	-1.464748
C	0.276318	3.288613	1.882380
H	0.238704	2.842244	2.894974
H	-0.557951	4.017140	1.808137
H	1.220618	3.867466	1.808230
H	0.288286	3.429678	-1.097114
$end

$rem
JOBTYPE		SP
EXCHANGE	HF
CORRELATION	pRIMP2
BASIS		cc-pvtz
METHOD		rimp2
AUX_BASIS	rimp2-cc-pvtz
SOLVENT_METHOD	PCM
PURECART	11111
SYMMETRY	false
MEM_TOTAL	110000
SCF_CONVERGENCE = 6
THRESH=10
GUI = 2
$end

$solvent
dielectric 4.90
$end
--------------------------------------------------------------

             Standard Nuclear Orientation (Angstroms)
    I     Atom           X                Y                Z
 ----------------------------------------------------------------
    1      C      -0.4665100000    -3.8878000000     0.5542670000
    2      C       0.4241730000    -3.7014560000    -0.5071210000
    3      C       0.6972440000    -2.3451700000    -0.8315750000
    4      H       0.8777890000    -4.5452330000    -1.0483370000
    5      C       0.0000000000    -1.4501350000     0.0000000000
    6      S      -0.9821500000    -2.3213340000     1.1699110000
    7      C       1.6270240000    -1.9344390000    -1.9393740000
    8      H       2.0540100000    -2.8197990000    -2.4488940000
    9      H       2.4752990000    -1.3262100000    -1.5615450000
   10      H       1.1080510000    -1.3253740000    -2.7087730000
   11      H      -0.8418630000    -4.8153260000     1.0009440000
   12      C       0.0000000000     0.0000000000     0.0000000000
   13      C       0.0705420000     0.8416600000     1.1130200000
   14      C       0.1871010000     2.2277460000     0.8205780000
   15      H       0.0380510000     0.4549250000     2.1428810000
   16      C       0.2080760000     2.4750090000    -0.5635880000
   17      S       0.0809170000     0.9672350000    -1.4647480000
   18      C       0.2763180000     3.2886130000     1.8823800000
   19      H       0.2387040000     2.8422440000     2.8949740000
   20      H      -0.5579510000     4.0171400000     1.8081370000
   21      H       1.2206180000     3.8674660000     1.8082300000
   22      H       0.2882860000     3.4296780000    -1.0971140000
 ----------------------------------------------------------------

   10   -1179.6859307937      5.18e-07  Convergence criterion met
 Total energy in the final basis set =    -1179.6859307937
        RIMP2         total energy =     -1181.6650892171 a.u.

                    Orbital Energies (a.u.)
 --------------------------------------------------------------

 Alpha MOs
 -- Occupied --
-91.9862 -91.9853 -11.2825 -11.2770 -11.2725 -11.2641 -11.2527 -11.2515
-11.2432 -11.2406 -11.2290 -11.2288  -8.9857  -8.9850  -6.6666  -6.6661
 -6.6659  -6.6655  -6.6654  -6.6647  -1.1795  -1.1499  -1.0405  -1.0236
 -0.9982  -0.9530  -0.9140  -0.8939  -0.7995  -0.7615  -0.7227  -0.6950
 -0.6624  -0.6163  -0.5831  -0.5777  -0.5765  -0.5697  -0.5519  -0.5328
 -0.5259  -0.5194  -0.5093  -0.4959  -0.4885  -0.4675  -0.4562  -0.3580
 -0.3427  -0.3387  -0.2778

          Ground-State Mulliken Net Atomic Charges

     Atom                 Charge (a.u.)
  ----------------------------------------
      1 C                    -0.215155
      2 C                    -0.249479
      3 C                     0.033472
      4 H                     0.185606
      5 C                    -0.027811
      6 S                     0.021282
      7 C                    -0.302243
      8 H                     0.111038
      9 H                     0.118000
     10 H                     0.112516
     11 H                     0.204975
     12 C                     0.022103
     13 C                    -0.244704
     14 C                     0.019367
     15 H                     0.184880
     16 C                    -0.241659
     17 S                     0.020584
     18 C                    -0.271226
     19 H                     0.103065
     20 H                     0.108370
     21 H                     0.108123
     22 H                     0.198895
  ----------------------------------------
  Sum of atomic charges =     0.000000

                    Cartesian Multipole Moments
 -----------------------------------------------------------------
    Charge (ESU x 10^10)
                -0.0000
    Dipole Moment (Debye)
         X       1.1470      Y       0.2020      Z       0.2476
       Tot       1.1907
    Quadrupole Moments (Debye-Ang)
        XX     -89.9524     XY      -0.5165     YY     -68.8973
        XZ      -3.2501     YZ       2.8444     ZZ     -82.6996

 Total job time:  52.31s(wall), 1803.73s(cpu)
        *  Thank you very much for using Q-Chem.  Have a nice day.  *
