 Q-Chem 5.4, Q-Chem, Inc., Pleasanton, CA (2021)
 Q-Chem 5.4.0 for Intel X86 EM64T Linux

User input:
--------------------------------------------------------------
$molecule
0 1
C	-0.680396	-3.887800	-0.248806
C	0.621614	-3.701456	0.225147
C	1.019896	-2.345170	0.370780
H	1.285337	-4.545233	0.466300
C	0.000000	-1.450135	0.000000
S	-1.435271	-2.321334	-0.522786
C	2.378891	-1.934439	0.865597
H	3.003720	-2.819799	1.092567
H	2.313975	-1.326210	1.791940
H	2.924390	-1.325374	0.114772
H	-1.228514	-4.815326	-0.448750
C	0.000000	0.000000	0.000000
C	0.645024	0.545262	1.113020
C	1.707554	1.442954	0.820578
H	0.348587	0.294774	2.142881
C	1.897227	1.602964	-0.563588
S	0.741155	0.626722	-1.464748
C	2.520787	2.130014	1.882380
H	2.178559	1.840981	2.894974
H	2.446016	3.235078	1.808137
H	3.597818	1.871604	1.808230
H	2.628997	2.221299	-1.097114
$end

$rem
JOBTYPE		SP
EXCHANGE	HF
CORRELATION	pRIMP2
BASIS		cc-pvtz
METHOD		rimp2
AUX_BASIS	rimp2-cc-pvtz
SOLVENT_METHOD	PCM
PURECART	11111
SYMMETRY	false
MEM_TOTAL	110000
SCF_CONVERGENCE = 6
THRESH=10
GUI = 2
$end

$solvent
dielectric 4.90
$end
--------------------------------------------------------------

             Standard Nuclear Orientation (Angstroms)
    I     Atom           X                Y                Z
 ----------------------------------------------------------------
    1      C      -0.6803960000    -3.8878000000    -0.2488060000
    2      C       0.6216140000    -3.7014560000     0.2251470000
    3      C       1.0198960000    -2.3451700000     0.3707800000
    4      H       1.2853370000    -4.5452330000     0.4663000000
    5      C       0.0000000000    -1.4501350000     0.0000000000
    6      S      -1.4352710000    -2.3213340000    -0.5227860000
    7      C       2.3788910000    -1.9344390000     0.8655970000
    8      H       3.0037200000    -2.8197990000     1.0925670000
    9      H       2.3139750000    -1.3262100000     1.7919400000
   10      H       2.9243900000    -1.3253740000     0.1147720000
   11      H      -1.2285140000    -4.8153260000    -0.4487500000
   12      C       0.0000000000     0.0000000000     0.0000000000
   13      C       0.6450240000     0.5452620000     1.1130200000
   14      C       1.7075540000     1.4429540000     0.8205780000
   15      H       0.3485870000     0.2947740000     2.1428810000
   16      C       1.8972270000     1.6029640000    -0.5635880000
   17      S       0.7411550000     0.6267220000    -1.4647480000
   18      C       2.5207870000     2.1300140000     1.8823800000
   19      H       2.1785590000     1.8409810000     2.8949740000
   20      H       2.4460160000     3.2350780000     1.8081370000
   21      H       3.5978180000     1.8716040000     1.8082300000
   22      H       2.6289970000     2.2212990000    -1.0971140000
 ----------------------------------------------------------------

   10   -1179.6383789854      9.48e-07  Convergence criterion met
 Total energy in the final basis set =    -1179.6383789854
        RIMP2         total energy =     -1181.6307501440 a.u.

                    Orbital Energies (a.u.)
 --------------------------------------------------------------

 Alpha MOs
 -- Occupied --
-91.9832 -91.9767 -11.2822 -11.2732 -11.2656 -11.2590 -11.2569 -11.2522
-11.2454 -11.2388 -11.2312 -11.2263  -8.9834  -8.9767  -6.6642  -6.6635
 -6.6630  -6.6576  -6.6570  -6.6564  -1.1850  -1.1466  -1.0429  -1.0196
 -0.9978  -0.9527  -0.9132  -0.8905  -0.7949  -0.7499  -0.7380  -0.6961
 -0.6563  -0.6190  -0.5858  -0.5819  -0.5709  -0.5669  -0.5490  -0.5344
 -0.5252  -0.5234  -0.5114  -0.4886  -0.4703  -0.4638  -0.4529  -0.3470
 -0.3386  -0.3262  -0.2911

          Ground-State Mulliken Net Atomic Charges

     Atom                 Charge (a.u.)
  ----------------------------------------
      1 C                    -0.217473
      2 C                    -0.259302
      3 C                     0.054791
      4 H                     0.183896
      5 C                    -0.009408
      6 S                     0.005149
      7 C                    -0.310719
      8 H                     0.117836
      9 H                     0.110575
     10 H                     0.116201
     11 H                     0.200850
     12 C                    -0.114615
     13 C                    -0.189278
     14 C                     0.026662
     15 H                     0.194408
     16 C                    -0.203768
     17 S                     0.037953
     18 C                    -0.271413
     19 H                     0.104126
     20 H                     0.114826
     21 H                     0.106682
     22 H                     0.202023
  ----------------------------------------
  Sum of atomic charges =     0.000000

                    Cartesian Multipole Moments
 -----------------------------------------------------------------
    Charge (ESU x 10^10)
                -0.0000
    Dipole Moment (Debye)
         X       3.6745      Y       0.7393      Z       2.1943
       Tot       4.3432
    Quadrupole Moments (Debye-Ang)
        XX     -80.2126     XY       3.7424     YY     -77.1532
        XZ       2.6083     YZ      -0.1483     ZZ     -85.5071

 Total job time:  54.21s(wall), 1927.06s(cpu)
        *  Thank you very much for using Q-Chem.  Have a nice day.  *
