 Q-Chem 5.4, Q-Chem, Inc., Pleasanton, CA (2021)
 Q-Chem 5.4.0 for Intel X86 EM64T Linux

User input:
--------------------------------------------------------------
$molecule
0 1
C	0.126876	-3.887800	-0.713264
C	-0.113784	-3.701456	0.651267
C	-0.188043	-2.345170	1.068787
H	-0.236019	-4.545233	1.346782
C	0.000000	-1.450135	0.000000
S	0.265612	-2.321334	-1.504247
C	-0.439357	-1.934439	2.493059
H	-0.554378	-2.819799	3.147809
H	-1.362899	-1.326210	2.589987
H	0.394786	-1.325374	2.899892
H	0.228603	-4.815326	-1.287774
C	0.000000	0.000000	0.000000
C	0.285976	0.794723	1.113020
C	0.757308	2.103412	0.820578
H	0.154498	0.429575	2.142881
C	0.841565	2.336821	-0.563588
S	0.328498	0.913334	-1.464748
C	1.118059	3.105040	1.882380
H	0.966197	2.683616	2.894974
H	0.500773	4.024668	1.808137
H	2.180000	3.419766	1.808230
H	1.166129	3.238200	-1.097114
$end

$rem
JOBTYPE		SP
EXCHANGE	HF
CORRELATION	pRIMP2
BASIS		cc-pvtz
METHOD		rimp2
AUX_BASIS	rimp2-cc-pvtz
SOLVENT_METHOD	PCM
PURECART	11111
SYMMETRY	false
MEM_TOTAL	110000
SCF_CONVERGENCE = 6
THRESH=10
GUI = 2
$end

$solvent
dielectric 4.90
$end
--------------------------------------------------------------

             Standard Nuclear Orientation (Angstroms)
    I     Atom           X                Y                Z
 ----------------------------------------------------------------
    1      C       0.1268760000    -3.8878000000    -0.7132640000
    2      C      -0.1137840000    -3.7014560000     0.6512670000
    3      C      -0.1880430000    -2.3451700000     1.0687870000
    4      H      -0.2360190000    -4.5452330000     1.3467820000
    5      C       0.0000000000    -1.4501350000     0.0000000000
    6      S       0.2656120000    -2.3213340000    -1.5042470000
    7      C      -0.4393570000    -1.9344390000     2.4930590000
    8      H      -0.5543780000    -2.8197990000     3.1478090000
    9      H      -1.3628990000    -1.3262100000     2.5899870000
   10      H       0.3947860000    -1.3253740000     2.8998920000
   11      H       0.2286030000    -4.8153260000    -1.2877740000
   12      C       0.0000000000     0.0000000000     0.0000000000
   13      C       0.2859760000     0.7947230000     1.1130200000
   14      C       0.7573080000     2.1034120000     0.8205780000
   15      H       0.1544980000     0.4295750000     2.1428810000
   16      C       0.8415650000     2.3368210000    -0.5635880000
   17      S       0.3284980000     0.9133340000    -1.4647480000
   18      C       1.1180590000     3.1050400000     1.8823800000
   19      H       0.9661970000     2.6836160000     2.8949740000
   20      H       0.5007730000     4.0246680000     1.8081370000
   21      H       2.1800000000     3.4197660000     1.8082300000
   22      H       1.1661290000     3.2382000000    -1.0971140000
 ----------------------------------------------------------------

   10   -1179.6768693859      4.73e-07  Convergence criterion met
 Total energy in the final basis set =    -1179.6768693859
        RIMP2         total energy =     -1181.6590203716 a.u.

                    Orbital Energies (a.u.)
 --------------------------------------------------------------

 Alpha MOs
 -- Occupied --
-91.9861 -91.9849 -11.2822 -11.2796 -11.2706 -11.2672 -11.2528 -11.2510
-11.2435 -11.2417 -11.2311 -11.2299  -8.9859  -8.9848  -6.6668  -6.6663
 -6.6658  -6.6657  -6.6652  -6.6646  -1.1818  -1.1502  -1.0418  -1.0271
 -0.9957  -0.9561  -0.9143  -0.8951  -0.8020  -0.7559  -0.7277  -0.7014
 -0.6609  -0.6148  -0.5924  -0.5824  -0.5705  -0.5624  -0.5513  -0.5405
 -0.5303  -0.5226  -0.5037  -0.4915  -0.4862  -0.4771  -0.4509  -0.3701
 -0.3475  -0.3371  -0.2687

          Ground-State Mulliken Net Atomic Charges

     Atom                 Charge (a.u.)
  ----------------------------------------
      1 C                    -0.219845
      2 C                    -0.248801
      3 C                     0.058384
      4 H                     0.185066
      5 C                    -0.040997
      6 S                     0.008954
      7 C                    -0.314612
      8 H                     0.118549
      9 H                     0.114426
     10 H                     0.103681
     11 H                     0.206200
     12 C                     0.027478
     13 C                    -0.231959
     14 C                     0.022482
     15 H                     0.194081
     16 C                    -0.240066
     17 S                     0.007222
     18 C                    -0.270241
     19 H                     0.101391
     20 H                     0.108820
     21 H                     0.108832
     22 H                     0.200954
  ----------------------------------------
  Sum of atomic charges =     0.000000

                    Cartesian Multipole Moments
 -----------------------------------------------------------------
    Charge (ESU x 10^10)
                -0.0000
    Dipole Moment (Debye)
         X       0.4323      Y       0.3565      Z       2.9658
       Tot       3.0183
    Quadrupole Moments (Debye-Ang)
        XX     -91.2633     XY       3.9932     YY     -70.0777
        XZ      -0.7441     YZ      -1.2533     ZZ     -80.2379

 Total job time:  52.46s(wall), 1790.70s(cpu)
        *  Thank you very much for using Q-Chem.  Have a nice day.  *
