 Q-Chem 5.4, Q-Chem, Inc., Pleasanton, CA (2021)
 Q-Chem 5.4.0 for Intel X86 EM64T Linux

User input:
--------------------------------------------------------------
$molecule
0 1
C	-0.724460	-3.887800	-0.001092
C	0.661131	-3.701456	-0.001036
C	1.085203	-2.345170	-0.000406
H	1.367305	-4.545233	-0.001433
C	-0.000000	-1.450135	-0.000000
S	-1.527517	-2.321334	-0.000367
C	2.531478	-1.934439	-0.000233
H	3.196254	-2.819799	-0.000656
H	2.787305	-1.326210	0.892447
H	2.787282	-1.325374	-0.892350
H	-1.307907	-4.815326	-0.001511
C	0.000000	0.000000	0.000000
C	0.070542	0.841660	1.113020
C	0.187101	2.227746	0.820578
H	0.038051	0.454925	2.142881
C	0.208076	2.475009	-0.563588
S	0.080917	0.967235	-1.464748
C	0.276318	3.288613	1.882380
H	0.238704	2.842244	2.894974
H	-0.557951	4.017140	1.808137
H	1.220618	3.867466	1.808230
H	0.288286	3.429678	-1.097114
$end

$rem
JOBTYPE		SP
EXCHANGE	HF
CORRELATION	pRIMP2
BASIS		cc-pvtz
METHOD		rimp2
AUX_BASIS	rimp2-cc-pvtz
SOLVENT_METHOD	PCM
PURECART	11111
SYMMETRY	false
MEM_TOTAL	110000
SCF_CONVERGENCE = 6
THRESH=10
GUI = 2
$end

$solvent
dielectric 4.90
$end
--------------------------------------------------------------

             Standard Nuclear Orientation (Angstroms)
    I     Atom           X                Y                Z
 ----------------------------------------------------------------
    1      C      -0.7244600000    -3.8878000000    -0.0010920000
    2      C       0.6611310000    -3.7014560000    -0.0010360000
    3      C       1.0852030000    -2.3451700000    -0.0004060000
    4      H       1.3673050000    -4.5452330000    -0.0014330000
    5      C       0.0000000000    -1.4501350000     0.0000000000
    6      S      -1.5275170000    -2.3213340000    -0.0003670000
    7      C       2.5314780000    -1.9344390000    -0.0002330000
    8      H       3.1962540000    -2.8197990000    -0.0006560000
    9      H       2.7873050000    -1.3262100000     0.8924470000
   10      H       2.7872820000    -1.3253740000    -0.8923500000
   11      H      -1.3079070000    -4.8153260000    -0.0015110000
   12      C       0.0000000000     0.0000000000     0.0000000000
   13      C       0.0705420000     0.8416600000     1.1130200000
   14      C       0.1871010000     2.2277460000     0.8205780000
   15      H       0.0380510000     0.4549250000     2.1428810000
   16      C       0.2080760000     2.4750090000    -0.5635880000
   17      S       0.0809170000     0.9672350000    -1.4647480000
   18      C       0.2763180000     3.2886130000     1.8823800000
   19      H       0.2387040000     2.8422440000     2.8949740000
   20      H      -0.5579510000     4.0171400000     1.8081370000
   21      H       1.2206180000     3.8674660000     1.8082300000
   22      H       0.2882860000     3.4296780000    -1.0971140000
 ----------------------------------------------------------------

   10   -1179.6854262003      5.11e-07  Convergence criterion met
 Total energy in the final basis set =    -1179.6854262003
        RIMP2         total energy =     -1181.6631762963 a.u.

                    Orbital Energies (a.u.)
 --------------------------------------------------------------

 Alpha MOs
 -- Occupied --
-91.9856 -91.9850 -11.2788 -11.2734 -11.2728 -11.2652 -11.2539 -11.2509
-11.2421 -11.2419 -11.2291 -11.2290  -8.9850  -8.9846  -6.6659  -6.6654
 -6.6654  -6.6649  -6.6648  -6.6643  -1.1777  -1.1496  -1.0391  -1.0226
 -0.9968  -0.9540  -0.9132  -0.8924  -0.7997  -0.7536  -0.7299  -0.6950
 -0.6621  -0.6165  -0.5822  -0.5792  -0.5710  -0.5689  -0.5515  -0.5305
 -0.5294  -0.5197  -0.5076  -0.4922  -0.4884  -0.4638  -0.4632  -0.3454
 -0.3390  -0.3129  -0.3124

          Ground-State Mulliken Net Atomic Charges

     Atom                 Charge (a.u.)
  ----------------------------------------
      1 C                    -0.214246
      2 C                    -0.247962
      3 C                     0.048127
      4 H                     0.185278
      5 C                    -0.043322
      6 S                     0.027415
      7 C                    -0.281389
      8 H                     0.108110
      9 H                     0.110047
     10 H                     0.110577
     11 H                     0.203974
     12 C                    -0.019955
     13 C                    -0.224246
     14 C                     0.016811
     15 H                     0.185671
     16 C                    -0.237844
     17 S                     0.026914
     18 C                    -0.271273
     19 H                     0.102860
     20 H                     0.108377
     21 H                     0.107811
     22 H                     0.198264
  ----------------------------------------
  Sum of atomic charges =     0.000000

                    Cartesian Multipole Moments
 -----------------------------------------------------------------
    Charge (ESU x 10^10)
                 0.0000
    Dipole Moment (Debye)
         X       1.6818      Y       0.2536      Z       1.4722
       Tot       2.2495
    Quadrupole Moments (Debye-Ang)
        XX     -86.0689     XY      -1.3514     YY     -68.8371
        XZ       0.0824     YZ       1.1435     ZZ     -86.7462

 Total job time:  54.18s(wall), 1850.86s(cpu)
        *  Thank you very much for using Q-Chem.  Have a nice day.  *
