 Q-Chem 5.4, Q-Chem, Inc., Pleasanton, CA (2021)
 Q-Chem 5.4.0 for Intel X86 EM64T Linux

User input:
--------------------------------------------------------------
$molecule
0 1
C	0.464838	-3.887800	0.555670
C	-0.425760	-3.701456	-0.505790
C	-0.697866	-2.345170	-0.831053
H	-0.879984	-4.545233	-1.046496
C	0.000000	-1.450135	0.000000
S	0.981588	-2.321334	1.170382
C	-1.627381	-1.934439	-1.939074
H	-2.055015	-2.819799	-2.448051
H	-1.107991	-1.326210	-2.708853
H	-2.475210	-1.325374	-1.561590
H	0.839549	-4.815326	1.002886
C	0.000000	0.000000	0.000000
C	0.645024	0.545262	1.113020
C	1.707554	1.442954	0.820578
H	0.348587	0.294774	2.142881
C	1.897227	1.602964	-0.563588
S	0.741155	0.626722	-1.464748
C	2.520787	2.130014	1.882380
H	2.178559	1.840981	2.894974
H	2.446016	3.235078	1.808137
H	3.597818	1.871604	1.808230
H	2.628997	2.221299	-1.097114
$end

$rem
JOBTYPE		SP
EXCHANGE	HF
CORRELATION	pRIMP2
BASIS		cc-pvtz
METHOD		rimp2
AUX_BASIS	rimp2-cc-pvtz
SOLVENT_METHOD	PCM
PURECART	11111
SYMMETRY	false
MEM_TOTAL	110000
SCF_CONVERGENCE = 6
THRESH=10
GUI = 2
$end

$solvent
dielectric 4.90
$end
--------------------------------------------------------------

             Standard Nuclear Orientation (Angstroms)
    I     Atom           X                Y                Z
 ----------------------------------------------------------------
    1      C       0.4648380000    -3.8878000000     0.5556700000
    2      C      -0.4257600000    -3.7014560000    -0.5057900000
    3      C      -0.6978660000    -2.3451700000    -0.8310530000
    4      H      -0.8799840000    -4.5452330000    -1.0464960000
    5      C       0.0000000000    -1.4501350000     0.0000000000
    6      S       0.9815880000    -2.3213340000     1.1703820000
    7      C      -1.6273810000    -1.9344390000    -1.9390740000
    8      H      -2.0550150000    -2.8197990000    -2.4480510000
    9      H      -1.1079910000    -1.3262100000    -2.7088530000
   10      H      -2.4752100000    -1.3253740000    -1.5615900000
   11      H       0.8395490000    -4.8153260000     1.0028860000
   12      C       0.0000000000     0.0000000000     0.0000000000
   13      C       0.6450240000     0.5452620000     1.1130200000
   14      C       1.7075540000     1.4429540000     0.8205780000
   15      H       0.3485870000     0.2947740000     2.1428810000
   16      C       1.8972270000     1.6029640000    -0.5635880000
   17      S       0.7411550000     0.6267220000    -1.4647480000
   18      C       2.5207870000     2.1300140000     1.8823800000
   19      H       2.1785590000     1.8409810000     2.8949740000
   20      H       2.4460160000     3.2350780000     1.8081370000
   21      H       3.5978180000     1.8716040000     1.8082300000
   22      H       2.6289970000     2.2212990000    -1.0971140000
 ----------------------------------------------------------------

   10   -1179.6406098155      6.64e-07  Convergence criterion met
 Total energy in the final basis set =    -1179.6406098155
        RIMP2         total energy =     -1181.6311050519 a.u.

                    Orbital Energies (a.u.)
 --------------------------------------------------------------

 Alpha MOs
 -- Occupied --
-91.9853 -91.9810 -11.2837 -11.2744 -11.2639 -11.2626 -11.2561 -11.2547
-11.2396 -11.2384 -11.2311 -11.2267  -8.9855  -8.9808  -6.6663  -6.6655
 -6.6651  -6.6617  -6.6611  -6.6604  -1.1871  -1.1469  -1.0442  -1.0203
 -1.0012  -0.9489  -0.9146  -0.8916  -0.7968  -0.7623  -0.7274  -0.6896
 -0.6579  -0.6199  -0.5860  -0.5805  -0.5739  -0.5696  -0.5497  -0.5345
 -0.5281  -0.5159  -0.5075  -0.4947  -0.4715  -0.4684  -0.4555  -0.3526
 -0.3438  -0.3391  -0.2731

          Ground-State Mulliken Net Atomic Charges

     Atom                 Charge (a.u.)
  ----------------------------------------
      1 C                    -0.242206
      2 C                    -0.239027
      3 C                     0.011827
      4 H                     0.182947
      5 C                     0.005358
      6 S                     0.012547
      7 C                    -0.299028
      8 H                     0.109683
      9 H                     0.107854
     10 H                     0.110135
     11 H                     0.201512
     12 C                    -0.069305
     13 C                    -0.228424
     14 C                     0.031469
     15 H                     0.198391
     16 C                    -0.200117
     17 S                     0.048794
     18 C                    -0.265683
     19 H                     0.104094
     20 H                     0.109089
     21 H                     0.108273
     22 H                     0.201817
  ----------------------------------------
  Sum of atomic charges =     0.000000

                    Cartesian Multipole Moments
 -----------------------------------------------------------------
    Charge (ESU x 10^10)
                -0.0000
    Dipole Moment (Debye)
         X       1.2834      Y       0.9489      Z       0.4730
       Tot       1.6647
    Quadrupole Moments (Debye-Ang)
        XX     -82.8124     XY       7.8081     YY     -77.3693
        XZ       3.6984     YZ       2.5319     ZZ     -82.4740

 Total job time:  51.13s(wall), 1715.19s(cpu)
        *  Thank you very much for using Q-Chem.  Have a nice day.  *
