 Q-Chem 5.4, Q-Chem, Inc., Pleasanton, CA (2021)
 Q-Chem 5.4.0 for Intel X86 EM64T Linux

User input:
--------------------------------------------------------------
$molecule
0 1
C	0.680396	-3.887800	0.248806
C	-0.621614	-3.701456	-0.225147
C	-1.019896	-2.345170	-0.370780
H	-1.285337	-4.545233	-0.466300
C	-0.000000	-1.450135	-0.000000
S	1.435271	-2.321334	0.522786
C	-2.378891	-1.934439	-0.865597
H	-3.003720	-2.819799	-1.092567
H	-2.313975	-1.326210	-1.791940
H	-2.924390	-1.325374	-0.114772
H	1.228514	-4.815326	0.448750
C	0.000000	0.000000	0.000000
C	0.070542	0.841660	1.113020
C	0.187101	2.227746	0.820578
H	0.038051	0.454925	2.142881
C	0.208076	2.475009	-0.563588
S	0.080917	0.967235	-1.464748
C	0.276318	3.288613	1.882380
H	0.238704	2.842244	2.894974
H	-0.557951	4.017140	1.808137
H	1.220618	3.867466	1.808230
H	0.288286	3.429678	-1.097114
$end

$rem
JOBTYPE		SP
EXCHANGE	HF
CORRELATION	pRIMP2
BASIS		cc-pvtz
METHOD		rimp2
AUX_BASIS	rimp2-cc-pvtz
SOLVENT_METHOD	PCM
PURECART	11111
SYMMETRY	false
MEM_TOTAL	110000
SCF_CONVERGENCE = 6
THRESH=10
GUI = 2
$end

$solvent
dielectric 4.90
$end
--------------------------------------------------------------

             Standard Nuclear Orientation (Angstroms)
    I     Atom           X                Y                Z
 ----------------------------------------------------------------
    1      C       0.6803960000    -3.8878000000     0.2488060000
    2      C      -0.6216140000    -3.7014560000    -0.2251470000
    3      C      -1.0198960000    -2.3451700000    -0.3707800000
    4      H      -1.2853370000    -4.5452330000    -0.4663000000
    5      C       0.0000000000    -1.4501350000     0.0000000000
    6      S       1.4352710000    -2.3213340000     0.5227860000
    7      C      -2.3788910000    -1.9344390000    -0.8655970000
    8      H      -3.0037200000    -2.8197990000    -1.0925670000
    9      H      -2.3139750000    -1.3262100000    -1.7919400000
   10      H      -2.9243900000    -1.3253740000    -0.1147720000
   11      H       1.2285140000    -4.8153260000     0.4487500000
   12      C       0.0000000000     0.0000000000     0.0000000000
   13      C       0.0705420000     0.8416600000     1.1130200000
   14      C       0.1871010000     2.2277460000     0.8205780000
   15      H       0.0380510000     0.4549250000     2.1428810000
   16      C       0.2080760000     2.4750090000    -0.5635880000
   17      S       0.0809170000     0.9672350000    -1.4647480000
   18      C       0.2763180000     3.2886130000     1.8823800000
   19      H       0.2387040000     2.8422440000     2.8949740000
   20      H      -0.5579510000     4.0171400000     1.8081370000
   21      H       1.2206180000     3.8674660000     1.8082300000
   22      H       0.2882860000     3.4296780000    -1.0971140000
 ----------------------------------------------------------------

   10   -1179.6862056257      5.08e-07  Convergence criterion met
 Total energy in the final basis set =    -1179.6862056257
        RIMP2         total energy =     -1181.6637808309 a.u.

                    Orbital Energies (a.u.)
 --------------------------------------------------------------

 Alpha MOs
 -- Occupied --
-91.9859 -91.9855 -11.2796 -11.2738 -11.2728 -11.2650 -11.2533 -11.2510
-11.2423 -11.2416 -11.2290 -11.2290  -8.9854  -8.9849  -6.6662  -6.6658
 -6.6657  -6.6653  -6.6651  -6.6647  -1.1780  -1.1497  -1.0393  -1.0228
 -0.9974  -0.9533  -0.9137  -0.8925  -0.7997  -0.7564  -0.7273  -0.6942
 -0.6623  -0.6166  -0.5825  -0.5787  -0.5720  -0.5694  -0.5515  -0.5320
 -0.5275  -0.5192  -0.5072  -0.4936  -0.4888  -0.4657  -0.4613  -0.3450
 -0.3406  -0.3290  -0.2966

          Ground-State Mulliken Net Atomic Charges

     Atom                 Charge (a.u.)
  ----------------------------------------
      1 C                    -0.211525
      2 C                    -0.249688
      3 C                     0.039958
      4 H                     0.185228
      5 C                    -0.043276
      6 S                     0.025713
      7 C                    -0.283223
      8 H                     0.107704
      9 H                     0.109656
     10 H                     0.111014
     11 H                     0.204287
     12 C                     0.000385
     13 C                    -0.237544
     14 C                     0.021218
     15 H                     0.186894
     16 C                    -0.238427
     17 S                     0.025116
     18 C                    -0.271084
     19 H                     0.102931
     20 H                     0.107878
     21 H                     0.108368
     22 H                     0.198418
  ----------------------------------------
  Sum of atomic charges =     0.000000

                    Cartesian Multipole Moments
 -----------------------------------------------------------------
    Charge (ESU x 10^10)
                -0.0000
    Dipole Moment (Debye)
         X      -1.2574      Y       0.2290      Z       0.9415
       Tot       1.5874
    Quadrupole Moments (Debye-Ang)
        XX     -86.8164     XY       3.0040     YY     -68.7880
        XZ       2.2700     YZ       1.9037     ZZ     -85.9512

 Total job time:  204.46s(wall), 10586.63s(cpu)
        *  Thank you very much for using Q-Chem.  Have a nice day.  *
