 Q-Chem 5.4, Q-Chem, Inc., Pleasanton, CA (2021)
 Q-Chem 5.4.0 for Intel X86 EM64T Linux

User input:
--------------------------------------------------------------
$molecule
0 1
C	-0.626855	-3.887800	-0.363176
C	0.573074	-3.701456	0.329669
C	0.940016	-2.345170	0.542250
H	1.184837	-4.545233	0.682412
C	0.000000	-1.450135	0.000000
S	-1.322686	-2.321334	-0.764076
C	2.192440	-1.934439	1.265537
H	2.768365	-2.819799	1.597559
H	1.967653	-1.326210	2.166534
H	2.860032	-1.325374	0.620843
H	-1.131925	-4.815326	-0.655262
C	0.000000	0.000000	0.000000
C	0.645024	0.545262	1.113020
C	1.707554	1.442954	0.820578
H	0.348587	0.294774	2.142881
C	1.897227	1.602964	-0.563588
S	0.741155	0.626722	-1.464748
C	2.520787	2.130014	1.882380
H	2.178559	1.840981	2.894974
H	2.446016	3.235078	1.808137
H	3.597818	1.871604	1.808230
H	2.628997	2.221299	-1.097114
$end

$rem
JOBTYPE		SP
EXCHANGE	HF
CORRELATION	pRIMP2
BASIS		cc-pvtz
METHOD		rimp2
AUX_BASIS	rimp2-cc-pvtz
SOLVENT_METHOD	PCM
PURECART	11111
SYMMETRY	false
MEM_TOTAL	110000
SCF_CONVERGENCE = 6
THRESH=10
GUI = 2
$end

$solvent
dielectric 4.90
$end
--------------------------------------------------------------

             Standard Nuclear Orientation (Angstroms)
    I     Atom           X                Y                Z
 ----------------------------------------------------------------
    1      C      -0.6268550000    -3.8878000000    -0.3631760000
    2      C       0.5730740000    -3.7014560000     0.3296690000
    3      C       0.9400160000    -2.3451700000     0.5422500000
    4      H       1.1848370000    -4.5452330000     0.6824120000
    5      C       0.0000000000    -1.4501350000     0.0000000000
    6      S      -1.3226860000    -2.3213340000    -0.7640760000
    7      C       2.1924400000    -1.9344390000     1.2655370000
    8      H       2.7683650000    -2.8197990000     1.5975590000
    9      H       1.9676530000    -1.3262100000     2.1665340000
   10      H       2.8600320000    -1.3253740000     0.6208430000
   11      H      -1.1319250000    -4.8153260000    -0.6552620000
   12      C       0.0000000000     0.0000000000     0.0000000000
   13      C       0.6450240000     0.5452620000     1.1130200000
   14      C       1.7075540000     1.4429540000     0.8205780000
   15      H       0.3485870000     0.2947740000     2.1428810000
   16      C       1.8972270000     1.6029640000    -0.5635880000
   17      S       0.7411550000     0.6267220000    -1.4647480000
   18      C       2.5207870000     2.1300140000     1.8823800000
   19      H       2.1785590000     1.8409810000     2.8949740000
   20      H       2.4460160000     3.2350780000     1.8081370000
   21      H       3.5978180000     1.8716040000     1.8082300000
   22      H       2.6289970000     2.2212990000    -1.0971140000
 ----------------------------------------------------------------

   10   -1179.6374779856      9.44e-07  Convergence criterion met
 Total energy in the final basis set =    -1179.6374779856
        RIMP2         total energy =     -1181.6298360573 a.u.

                    Orbital Energies (a.u.)
 --------------------------------------------------------------

 Alpha MOs
 -- Occupied --
-91.9829 -91.9766 -11.2823 -11.2739 -11.2657 -11.2595 -11.2567 -11.2526
-11.2453 -11.2391 -11.2314 -11.2264  -8.9831  -8.9767  -6.6639  -6.6632
 -6.6627  -6.6576  -6.6570  -6.6565  -1.1854  -1.1467  -1.0432  -1.0209
 -0.9972  -0.9527  -0.9135  -0.8912  -0.7951  -0.7508  -0.7372  -0.6975
 -0.6560  -0.6187  -0.5879  -0.5823  -0.5701  -0.5651  -0.5490  -0.5362
 -0.5252  -0.5242  -0.5104  -0.4888  -0.4710  -0.4633  -0.4539  -0.3466
 -0.3394  -0.3332  -0.2849

          Ground-State Mulliken Net Atomic Charges

     Atom                 Charge (a.u.)
  ----------------------------------------
      1 C                    -0.216608
      2 C                    -0.260840
      3 C                     0.049590
      4 H                     0.183915
      5 C                    -0.001362
      6 S                     0.002982
      7 C                    -0.309306
      8 H                     0.116788
      9 H                     0.109859
     10 H                     0.117081
     11 H                     0.201379
     12 C                    -0.120621
     13 C                    -0.177167
     14 C                     0.012124
     15 H                     0.193441
     16 C                    -0.193751
     17 S                     0.037096
     18 C                    -0.273201
     19 H                     0.104081
     20 H                     0.115544
     21 H                     0.106931
     22 H                     0.202044
  ----------------------------------------
  Sum of atomic charges =     0.000000

                    Cartesian Multipole Moments
 -----------------------------------------------------------------
    Charge (ESU x 10^10)
                -0.0000
    Dipole Moment (Debye)
         X       3.5682      Y       0.7421      Z       2.4699
       Tot       4.4026
    Quadrupole Moments (Debye-Ang)
        XX     -80.9601     XY       3.9783     YY     -77.0793
        XZ       3.3056     YZ      -0.5275     ZZ     -84.7241

 Total job time:  54.14s(wall), 1846.52s(cpu)
        *  Thank you very much for using Q-Chem.  Have a nice day.  *
