 Q-Chem 5.4, Q-Chem, Inc., Pleasanton, CA (2021)
 Q-Chem 5.4.0 for Intel X86 EM64T Linux

User input:
--------------------------------------------------------------
$molecule
0 1
C	-0.713264	-3.887800	-0.126876
C	0.651267	-3.701456	0.113784
C	1.068787	-2.345170	0.188043
H	1.346782	-4.545233	0.236019
C	-0.000000	-1.450135	-0.000000
S	-1.504247	-2.321334	-0.265612
C	2.493059	-1.934439	0.439357
H	3.147809	-2.819799	0.554378
H	2.589987	-1.326210	1.362899
H	2.899892	-1.325374	-0.394786
H	-1.287774	-4.815326	-0.228603
C	0.000000	0.000000	0.000000
C	0.070542	0.841660	1.113020
C	0.187101	2.227746	0.820578
H	0.038051	0.454925	2.142881
C	0.208076	2.475009	-0.563588
S	0.080917	0.967235	-1.464748
C	0.276318	3.288613	1.882380
H	0.238704	2.842244	2.894974
H	-0.557951	4.017140	1.808137
H	1.220618	3.867466	1.808230
H	0.288286	3.429678	-1.097114
$end

$rem
JOBTYPE		SP
EXCHANGE	HF
CORRELATION	pRIMP2
BASIS		cc-pvtz
METHOD		rimp2
AUX_BASIS	rimp2-cc-pvtz
SOLVENT_METHOD	PCM
PURECART	11111
SYMMETRY	false
MEM_TOTAL	110000
SCF_CONVERGENCE = 6
THRESH=10
GUI = 2
$end

$solvent
dielectric 4.90
$end
--------------------------------------------------------------

             Standard Nuclear Orientation (Angstroms)
    I     Atom           X                Y                Z
 ----------------------------------------------------------------
    1      C      -0.7132640000    -3.8878000000    -0.1268760000
    2      C       0.6512670000    -3.7014560000     0.1137840000
    3      C       1.0687870000    -2.3451700000     0.1880430000
    4      H       1.3467820000    -4.5452330000     0.2360190000
    5      C       0.0000000000    -1.4501350000     0.0000000000
    6      S      -1.5042470000    -2.3213340000    -0.2656120000
    7      C       2.4930590000    -1.9344390000     0.4393570000
    8      H       3.1478090000    -2.8197990000     0.5543780000
    9      H       2.5899870000    -1.3262100000     1.3628990000
   10      H       2.8998920000    -1.3253740000    -0.3947860000
   11      H      -1.2877740000    -4.8153260000    -0.2286030000
   12      C       0.0000000000     0.0000000000     0.0000000000
   13      C       0.0705420000     0.8416600000     1.1130200000
   14      C       0.1871010000     2.2277460000     0.8205780000
   15      H       0.0380510000     0.4549250000     2.1428810000
   16      C       0.2080760000     2.4750090000    -0.5635880000
   17      S       0.0809170000     0.9672350000    -1.4647480000
   18      C       0.2763180000     3.2886130000     1.8823800000
   19      H       0.2387040000     2.8422440000     2.8949740000
   20      H      -0.5579510000     4.0171400000     1.8081370000
   21      H       1.2206180000     3.8674660000     1.8082300000
   22      H       0.2882860000     3.4296780000    -1.0971140000
 ----------------------------------------------------------------

   10   -1179.6855334326      5.15e-07  Convergence criterion met
 Total energy in the final basis set =    -1179.6855334326
        RIMP2         total energy =     -1181.6633206760 a.u.

                    Orbital Energies (a.u.)
 --------------------------------------------------------------

 Alpha MOs
 -- Occupied --
-91.9856 -91.9849 -11.2789 -11.2735 -11.2729 -11.2652 -11.2541 -11.2509
-11.2422 -11.2417 -11.2292 -11.2291  -8.9851  -8.9845  -6.6659  -6.6654
 -6.6654  -6.6648  -6.6648  -6.6642  -1.1778  -1.1496  -1.0391  -1.0229
 -0.9965  -0.9543  -0.9130  -0.8925  -0.7999  -0.7528  -0.7306  -0.6953
 -0.6620  -0.6164  -0.5824  -0.5795  -0.5706  -0.5683  -0.5515  -0.5306
 -0.5297  -0.5199  -0.5075  -0.4920  -0.4884  -0.4645  -0.4627  -0.3458
 -0.3386  -0.3211  -0.3045

          Ground-State Mulliken Net Atomic Charges

     Atom                 Charge (a.u.)
  ----------------------------------------
      1 C                    -0.213843
      2 C                    -0.248207
      3 C                     0.049836
      4 H                     0.185331
      5 C                    -0.044285
      6 S                     0.026822
      7 C                    -0.281804
      8 H                     0.108719
      9 H                     0.109601
     10 H                     0.111516
     11 H                     0.204076
     12 C                    -0.019885
     13 C                    -0.224563
     14 C                     0.016611
     15 H                     0.186283
     16 C                    -0.238403
     17 S                     0.026194
     18 C                    -0.271338
     19 H                     0.102770
     20 H                     0.108420
     21 H                     0.107808
     22 H                     0.198342
  ----------------------------------------
  Sum of atomic charges =     0.000000

                    Cartesian Multipole Moments
 -----------------------------------------------------------------
    Charge (ESU x 10^10)
                -0.0000
    Dipole Moment (Debye)
         X       1.6633      Y       0.2438      Z       1.7427
       Tot       2.4214
    Quadrupole Moments (Debye-Ang)
        XX     -86.2704     XY      -1.3106     YY     -68.8085
        XZ       1.2210     YZ       0.7429     ZZ     -86.5556

 Total job time:  53.50s(wall), 1835.18s(cpu)
        *  Thank you very much for using Q-Chem.  Have a nice day.  *
