 Q-Chem 5.4, Q-Chem, Inc., Pleasanton, CA (2021)
 Q-Chem 5.4.0 for Intel X86 EM64T Linux

User input:
--------------------------------------------------------------
$molecule
0 1
C	-0.248806	-3.887800	0.680396
C	0.225147	-3.701456	-0.621614
C	0.370780	-2.345170	-1.019896
H	0.466300	-4.545233	-1.285337
C	0.000000	-1.450135	0.000000
S	-0.522786	-2.321334	1.435271
C	0.865597	-1.934439	-2.378891
H	1.092567	-2.819799	-3.003720
H	1.791940	-1.326210	-2.313975
H	0.114772	-1.325374	-2.924390
H	-0.448750	-4.815326	1.228514
C	0.000000	0.000000	0.000000
C	0.354153	0.766774	1.113020
C	0.937751	2.029404	0.820578
H	0.191350	0.414475	2.142881
C	1.042030	2.254581	-0.563588
S	0.406851	0.881228	-1.464748
C	1.384426	2.995779	1.882380
H	1.196413	2.589194	2.894974
H	0.849641	3.965707	1.808137
H	2.469756	3.216753	1.808230
H	1.443919	3.124243	-1.097114
$end

$rem
JOBTYPE		SP
EXCHANGE	HF
CORRELATION	pRIMP2
BASIS		cc-pvtz
METHOD		rimp2
AUX_BASIS	rimp2-cc-pvtz
SOLVENT_METHOD	PCM
PURECART	11111
SYMMETRY	false
MEM_TOTAL	110000
SCF_CONVERGENCE = 6
THRESH=10
GUI = 2
$end

$solvent
dielectric 4.90
$end
--------------------------------------------------------------

             Standard Nuclear Orientation (Angstroms)
    I     Atom           X                Y                Z
 ----------------------------------------------------------------
    1      C      -0.2488060000    -3.8878000000     0.6803960000
    2      C       0.2251470000    -3.7014560000    -0.6216140000
    3      C       0.3707800000    -2.3451700000    -1.0198960000
    4      H       0.4663000000    -4.5452330000    -1.2853370000
    5      C       0.0000000000    -1.4501350000     0.0000000000
    6      S      -0.5227860000    -2.3213340000     1.4352710000
    7      C       0.8655970000    -1.9344390000    -2.3788910000
    8      H       1.0925670000    -2.8197990000    -3.0037200000
    9      H       1.7919400000    -1.3262100000    -2.3139750000
   10      H       0.1147720000    -1.3253740000    -2.9243900000
   11      H      -0.4487500000    -4.8153260000     1.2285140000
   12      C       0.0000000000     0.0000000000     0.0000000000
   13      C       0.3541530000     0.7667740000     1.1130200000
   14      C       0.9377510000     2.0294040000     0.8205780000
   15      H       0.1913500000     0.4144750000     2.1428810000
   16      C       1.0420300000     2.2545810000    -0.5635880000
   17      S       0.4068510000     0.8812280000    -1.4647480000
   18      C       1.3844260000     2.9957790000     1.8823800000
   19      H       1.1964130000     2.5891940000     2.8949740000
   20      H       0.8496410000     3.9657070000     1.8081370000
   21      H       2.4697560000     3.2167530000     1.8082300000
   22      H       1.4439190000     3.1242430000    -1.0971140000
 ----------------------------------------------------------------

   10   -1179.6704930962      5.28e-07  Convergence criterion met
 Total energy in the final basis set =    -1179.6704930962
        RIMP2         total energy =     -1181.6548908929 a.u.

                    Orbital Energies (a.u.)
 --------------------------------------------------------------

 Alpha MOs
 -- Occupied --
-91.9841 -91.9834 -11.2803 -11.2791 -11.2699 -11.2664 -11.2520 -11.2496
-11.2431 -11.2426 -11.2292 -11.2274  -8.9841  -8.9833  -6.6649  -6.6644
 -6.6643  -6.6638  -6.6637  -6.6631  -1.1816  -1.1492  -1.0420  -1.0237
 -0.9980  -0.9524  -0.9130  -0.8954  -0.7976  -0.7640  -0.7210  -0.6957
 -0.6609  -0.6162  -0.5837  -0.5806  -0.5777  -0.5695  -0.5516  -0.5327
 -0.5246  -0.5203  -0.5116  -0.4965  -0.4842  -0.4658  -0.4502  -0.3684
 -0.3423  -0.3380  -0.2689

          Ground-State Mulliken Net Atomic Charges

     Atom                 Charge (a.u.)
  ----------------------------------------
      1 C                    -0.216172
      2 C                    -0.251494
      3 C                     0.050092
      4 H                     0.185621
      5 C                    -0.038413
      6 S                     0.007057
      7 C                    -0.309769
      8 H                     0.111965
      9 H                     0.120790
     10 H                     0.109403
     11 H                     0.205195
     12 C                     0.021037
     13 C                    -0.228865
     14 C                     0.021355
     15 H                     0.179325
     16 C                    -0.238385
     17 S                     0.021669
     18 C                    -0.269244
     19 H                     0.103021
     20 H                     0.108487
     21 H                     0.107716
     22 H                     0.199611
  ----------------------------------------
  Sum of atomic charges =     0.000000

                    Cartesian Multipole Moments
 -----------------------------------------------------------------
    Charge (ESU x 10^10)
                -0.0000
    Dipole Moment (Debye)
         X       1.4362      Y       0.3806      Z      -0.0782
       Tot       1.4879
    Quadrupole Moments (Debye-Ang)
        XX     -89.9476     XY       3.3849     YY     -71.6312
        XZ      -1.7887     YZ       3.1553     ZZ     -80.6211

 Total job time:  55.47s(wall), 1865.77s(cpu)
        *  Thank you very much for using Q-Chem.  Have a nice day.  *
