 Q-Chem 5.4, Q-Chem, Inc., Pleasanton, CA (2021)
 Q-Chem 5.4.0 for Intel X86 EM64T Linux

User input:
--------------------------------------------------------------
$molecule
0 1
C	0.246754	-3.887800	0.681143
C	-0.227093	-3.701456	-0.620906
C	-0.371543	-2.345170	-1.019618
H	-0.468992	-4.545233	-1.284357
C	0.000000	-1.450135	0.000000
S	0.522097	-2.321334	1.435522
C	-0.866035	-1.934439	-2.378731
H	-1.093799	-2.819799	-3.003272
H	-0.114688	-1.326210	-2.924444
H	-1.791841	-1.325374	-2.313987
H	0.445911	-4.815326	1.229547
C	0.000000	0.000000	0.000000
C	0.143630	0.832309	1.113020
C	0.380550	2.202961	0.820578
H	0.077556	0.449877	2.142881
C	0.422995	2.447456	-0.563588
S	0.164909	0.956502	-1.464748
C	0.561888	3.252016	1.882380
H	0.485513	2.810624	2.894974
H	-0.205711	4.050482	1.808137
H	1.553045	3.746365	1.808230
H	0.586105	3.391501	-1.097114
$end

$rem
JOBTYPE		SP
EXCHANGE	HF
CORRELATION	pRIMP2
BASIS		cc-pvtz
METHOD		rimp2
AUX_BASIS	rimp2-cc-pvtz
SOLVENT_METHOD	PCM
PURECART	11111
SYMMETRY	false
MEM_TOTAL	110000
SCF_CONVERGENCE = 6
THRESH=10
GUI = 2
$end

$solvent
dielectric 4.90
$end
--------------------------------------------------------------

             Standard Nuclear Orientation (Angstroms)
    I     Atom           X                Y                Z
 ----------------------------------------------------------------
    1      C       0.2467540000    -3.8878000000     0.6811430000
    2      C      -0.2270930000    -3.7014560000    -0.6209060000
    3      C      -0.3715430000    -2.3451700000    -1.0196180000
    4      H      -0.4689920000    -4.5452330000    -1.2843570000
    5      C       0.0000000000    -1.4501350000     0.0000000000
    6      S       0.5220970000    -2.3213340000     1.4355220000
    7      C      -0.8660350000    -1.9344390000    -2.3787310000
    8      H      -1.0937990000    -2.8197990000    -3.0032720000
    9      H      -0.1146880000    -1.3262100000    -2.9244440000
   10      H      -1.7918410000    -1.3253740000    -2.3139870000
   11      H       0.4459110000    -4.8153260000     1.2295470000
   12      C       0.0000000000     0.0000000000     0.0000000000
   13      C       0.1436300000     0.8323090000     1.1130200000
   14      C       0.3805500000     2.2029610000     0.8205780000
   15      H       0.0775560000     0.4498770000     2.1428810000
   16      C       0.4229950000     2.4474560000    -0.5635880000
   17      S       0.1649090000     0.9565020000    -1.4647480000
   18      C       0.5618880000     3.2520160000     1.8823800000
   19      H       0.4855130000     2.8106240000     2.8949740000
   20      H      -0.2057110000     4.0504820000     1.8081370000
   21      H       1.5530450000     3.7463650000     1.8082300000
   22      H       0.5861050000     3.3915010000    -1.0971140000
 ----------------------------------------------------------------

   10   -1179.6855237342      5.43e-07  Convergence criterion met
 Total energy in the final basis set =    -1179.6855237342
        RIMP2         total energy =     -1181.6655310546 a.u.

                    Orbital Energies (a.u.)
 --------------------------------------------------------------

 Alpha MOs
 -- Occupied --
-91.9861 -91.9855 -11.2837 -11.2781 -11.2731 -11.2632 -11.2532 -11.2523
-11.2437 -11.2397 -11.2302 -11.2290  -8.9858  -8.9852  -6.6667  -6.6662
 -6.6661  -6.6656  -6.6655  -6.6649  -1.1807  -1.1502  -1.0412  -1.0252
 -0.9987  -0.9525  -0.9149  -0.8950  -0.7997  -0.7643  -0.7202  -0.6953
 -0.6632  -0.6163  -0.5839  -0.5804  -0.5775  -0.5698  -0.5526  -0.5337
 -0.5240  -0.5201  -0.5101  -0.4974  -0.4901  -0.4682  -0.4529  -0.3665
 -0.3434  -0.3407  -0.2712

          Ground-State Mulliken Net Atomic Charges

     Atom                 Charge (a.u.)
  ----------------------------------------
      1 C                    -0.211555
      2 C                    -0.253624
      3 C                     0.047719
      4 H                     0.185603
      5 C                    -0.025424
      6 S                     0.012577
      7 C                    -0.317272
      8 H                     0.115392
      9 H                     0.112462
     10 H                     0.120137
     11 H                     0.206474
     12 C                     0.059422
     13 C                    -0.291850
     14 C                     0.043931
     15 H                     0.178638
     16 C                    -0.258580
     17 S                     0.027866
     18 C                    -0.270974
     19 H                     0.103014
     20 H                     0.108216
     21 H                     0.109122
     22 H                     0.198707
  ----------------------------------------
  Sum of atomic charges =     0.000000

                    Cartesian Multipole Moments
 -----------------------------------------------------------------
    Charge (ESU x 10^10)
                -0.0000
    Dipole Moment (Debye)
         X      -0.2249      Y       0.0858      Z      -0.0329
       Tot       0.2430
    Quadrupole Moments (Debye-Ang)
        XX     -91.6751     XY       2.6488     YY     -68.8382
        XZ       2.4299     YZ       3.3602     ZZ     -80.6088

 Total job time:  54.91s(wall), 1839.82s(cpu)
        *  Thank you very much for using Q-Chem.  Have a nice day.  *
