 Q-Chem 5.4, Q-Chem, Inc., Pleasanton, CA (2021)
 Q-Chem 5.4.0 for Intel X86 EM64T Linux

User input:
--------------------------------------------------------------
$molecule
0 1
C	-0.555670	-3.887800	0.464838
C	0.505790	-3.701456	-0.425760
C	0.831053	-2.345170	-0.697866
H	1.046496	-4.545233	-0.879984
C	0.000000	-1.450135	0.000000
S	-1.170382	-2.321334	0.981588
C	1.939074	-1.934439	-1.627381
H	2.448051	-2.819799	-2.055015
H	2.708853	-1.326210	-1.107991
H	1.561590	-1.325374	-2.475210
H	-1.002886	-4.815326	0.839549
C	0.000000	0.000000	0.000000
C	0.645024	0.545262	1.113020
C	1.707554	1.442954	0.820578
H	0.348587	0.294774	2.142881
C	1.897227	1.602964	-0.563588
S	0.741155	0.626722	-1.464748
C	2.520787	2.130014	1.882380
H	2.178559	1.840981	2.894974
H	2.446016	3.235078	1.808137
H	3.597818	1.871604	1.808230
H	2.628997	2.221299	-1.097114
$end

$rem
JOBTYPE		SP
EXCHANGE	HF
CORRELATION	pRIMP2
BASIS		cc-pvtz
METHOD		rimp2
AUX_BASIS	rimp2-cc-pvtz
SOLVENT_METHOD	PCM
PURECART	11111
SYMMETRY	false
MEM_TOTAL	110000
SCF_CONVERGENCE = 6
THRESH=10
GUI = 2
$end

$solvent
dielectric 4.90
$end
--------------------------------------------------------------

             Standard Nuclear Orientation (Angstroms)
    I     Atom           X                Y                Z
 ----------------------------------------------------------------
    1      C      -0.5556700000    -3.8878000000     0.4648380000
    2      C       0.5057900000    -3.7014560000    -0.4257600000
    3      C       0.8310530000    -2.3451700000    -0.6978660000
    4      H       1.0464960000    -4.5452330000    -0.8799840000
    5      C       0.0000000000    -1.4501350000     0.0000000000
    6      S      -1.1703820000    -2.3213340000     0.9815880000
    7      C       1.9390740000    -1.9344390000    -1.6273810000
    8      H       2.4480510000    -2.8197990000    -2.0550150000
    9      H       2.7088530000    -1.3262100000    -1.1079910000
   10      H       1.5615900000    -1.3253740000    -2.4752100000
   11      H      -1.0028860000    -4.8153260000     0.8395490000
   12      C       0.0000000000     0.0000000000     0.0000000000
   13      C       0.6450240000     0.5452620000     1.1130200000
   14      C       1.7075540000     1.4429540000     0.8205780000
   15      H       0.3485870000     0.2947740000     2.1428810000
   16      C       1.8972270000     1.6029640000    -0.5635880000
   17      S       0.7411550000     0.6267220000    -1.4647480000
   18      C       2.5207870000     2.1300140000     1.8823800000
   19      H       2.1785590000     1.8409810000     2.8949740000
   20      H       2.4460160000     3.2350780000     1.8081370000
   21      H       3.5978180000     1.8716040000     1.8082300000
   22      H       2.6289970000     2.2212990000    -1.0971140000
 ----------------------------------------------------------------

   10   -1179.6225106981      9.20e-07  Convergence criterion met
 Total energy in the final basis set =    -1179.6225106981
        RIMP2         total energy =     -1181.6184215908 a.u.

                    Orbital Energies (a.u.)
 --------------------------------------------------------------

 Alpha MOs
 -- Occupied --
-91.9811 -91.9770 -11.2824 -11.2783 -11.2628 -11.2612 -11.2580 -11.2534
-11.2397 -11.2384 -11.2310 -11.2200  -8.9821  -8.9771  -6.6628  -6.6621
 -6.6618  -6.6580  -6.6575  -6.6568  -1.1866  -1.1459  -1.0446  -1.0190
 -0.9982  -0.9524  -0.9101  -0.8934  -0.7936  -0.7594  -0.7292  -0.6950
 -0.6554  -0.6193  -0.5853  -0.5818  -0.5747  -0.5678  -0.5487  -0.5366
 -0.5247  -0.5213  -0.5113  -0.4933  -0.4681  -0.4574  -0.4492  -0.3579
 -0.3377  -0.3297  -0.2749

          Ground-State Mulliken Net Atomic Charges

     Atom                 Charge (a.u.)
  ----------------------------------------
      1 C                    -0.227697
      2 C                    -0.256808
      3 C                     0.023285
      4 H                     0.184175
      5 C                     0.001574
      6 S                    -0.004877
      7 C                    -0.290625
      8 H                     0.103931
      9 H                     0.112515
     10 H                     0.115569
     11 H                     0.200392
     12 C                    -0.105901
     13 C                    -0.129850
     14 C                    -0.009591
     15 H                     0.189976
     16 C                    -0.196317
     17 S                     0.038743
     18 C                    -0.266558
     19 H                     0.103493
     20 H                     0.107652
     21 H                     0.106019
     22 H                     0.200899
  ----------------------------------------
  Sum of atomic charges =     0.000000

                    Cartesian Multipole Moments
 -----------------------------------------------------------------
    Charge (ESU x 10^10)
                -0.0000
    Dipole Moment (Debye)
         X       3.4550      Y       1.1088      Z       0.4678
       Tot       3.6586
    Quadrupole Moments (Debye-Ang)
        XX     -82.1048     XY       4.4732     YY     -78.9845
        XZ      -2.4767     YZ       2.2042     ZZ     -83.2061

 Total job time:  53.26s(wall), 1864.12s(cpu)
        *  Thank you very much for using Q-Chem.  Have a nice day.  *
