 Q-Chem 5.4, Q-Chem, Inc., Pleasanton, CA (2021)
 Q-Chem 5.4.0 for Intel X86 EM64T Linux

User input:
--------------------------------------------------------------
$molecule
0 1
C	0.713264	-3.887800	0.126876
C	-0.651267	-3.701456	-0.113784
C	-1.068787	-2.345170	-0.188043
H	-1.346782	-4.545233	-0.236019
C	0.000000	-1.450135	0.000000
S	1.504247	-2.321334	0.265612
C	-2.493059	-1.934439	-0.439357
H	-3.147809	-2.819799	-0.554378
H	-2.589987	-1.326210	-1.362899
H	-2.899892	-1.325374	0.394786
H	1.287774	-4.815326	0.228603
C	0.000000	0.000000	0.000000
C	0.285976	0.794723	1.113020
C	0.757308	2.103412	0.820578
H	0.154498	0.429575	2.142881
C	0.841565	2.336821	-0.563588
S	0.328498	0.913334	-1.464748
C	1.118059	3.105040	1.882380
H	0.966197	2.683616	2.894974
H	0.500773	4.024668	1.808137
H	2.180000	3.419766	1.808230
H	1.166129	3.238200	-1.097114
$end

$rem
JOBTYPE		SP
EXCHANGE	HF
CORRELATION	pRIMP2
BASIS		cc-pvtz
METHOD		rimp2
AUX_BASIS	rimp2-cc-pvtz
SOLVENT_METHOD	PCM
PURECART	11111
SYMMETRY	false
MEM_TOTAL	110000
SCF_CONVERGENCE = 6
THRESH=10
GUI = 2
$end

$solvent
dielectric 4.90
$end
--------------------------------------------------------------

             Standard Nuclear Orientation (Angstroms)
    I     Atom           X                Y                Z
 ----------------------------------------------------------------
    1      C       0.7132640000    -3.8878000000     0.1268760000
    2      C      -0.6512670000    -3.7014560000    -0.1137840000
    3      C      -1.0687870000    -2.3451700000    -0.1880430000
    4      H      -1.3467820000    -4.5452330000    -0.2360190000
    5      C       0.0000000000    -1.4501350000     0.0000000000
    6      S       1.5042470000    -2.3213340000     0.2656120000
    7      C      -2.4930590000    -1.9344390000    -0.4393570000
    8      H      -3.1478090000    -2.8197990000    -0.5543780000
    9      H      -2.5899870000    -1.3262100000    -1.3628990000
   10      H      -2.8998920000    -1.3253740000     0.3947860000
   11      H       1.2877740000    -4.8153260000     0.2286030000
   12      C       0.0000000000     0.0000000000     0.0000000000
   13      C       0.2859760000     0.7947230000     1.1130200000
   14      C       0.7573080000     2.1034120000     0.8205780000
   15      H       0.1544980000     0.4295750000     2.1428810000
   16      C       0.8415650000     2.3368210000    -0.5635880000
   17      S       0.3284980000     0.9133340000    -1.4647480000
   18      C       1.1180590000     3.1050400000     1.8823800000
   19      H       0.9661970000     2.6836160000     2.8949740000
   20      H       0.5007730000     4.0246680000     1.8081370000
   21      H       2.1800000000     3.4197660000     1.8082300000
   22      H       1.1661290000     3.2382000000    -1.0971140000
 ----------------------------------------------------------------

   10   -1179.6792346603      5.05e-07  Convergence criterion met
 Total energy in the final basis set =    -1179.6792346603
        RIMP2         total energy =     -1181.6581435677 a.u.

                    Orbital Energies (a.u.)
 --------------------------------------------------------------

 Alpha MOs
 -- Occupied --
-91.9848 -91.9847 -11.2760 -11.2722 -11.2722 -11.2674 -11.2517 -11.2510
-11.2436 -11.2412 -11.2291 -11.2288  -8.9844  -8.9843  -6.6652  -6.6651
 -6.6647  -6.6646  -6.6641  -6.6640  -1.1783  -1.1492  -1.0393  -1.0223
 -0.9970  -0.9530  -0.9132  -0.8921  -0.7991  -0.7543  -0.7294  -0.6932
 -0.6615  -0.6168  -0.5825  -0.5791  -0.5708  -0.5692  -0.5511  -0.5319
 -0.5281  -0.5187  -0.5074  -0.4926  -0.4851  -0.4645  -0.4627  -0.3477
 -0.3364  -0.3203  -0.3039

          Ground-State Mulliken Net Atomic Charges

     Atom                 Charge (a.u.)
  ----------------------------------------
      1 C                    -0.205728
      2 C                    -0.253501
      3 C                     0.056661
      4 H                     0.184075
      5 C                    -0.059327
      6 S                     0.026987
      7 C                    -0.284465
      8 H                     0.106558
      9 H                     0.109926
     10 H                     0.110235
     11 H                     0.204074
     12 C                    -0.000652
     13 C                    -0.249998
     14 C                     0.033490
     15 H                     0.185224
     16 C                    -0.236865
     17 S                     0.025755
     18 C                    -0.269830
     19 H                     0.102907
     20 H                     0.107749
     21 H                     0.108190
     22 H                     0.198534
  ----------------------------------------
  Sum of atomic charges =     0.000000

                    Cartesian Multipole Moments
 -----------------------------------------------------------------
    Charge (ESU x 10^10)
                -0.0000
    Dipole Moment (Debye)
         X      -0.7859      Y       0.3061      Z       1.2317
       Tot       1.4928
    Quadrupole Moments (Debye-Ang)
        XX     -85.0621     XY       5.7347     YY     -70.1157
        XZ       1.5347     YZ       1.4386     ZZ     -86.4703

 Total job time:  51.28s(wall), 1763.42s(cpu)
        *  Thank you very much for using Q-Chem.  Have a nice day.  *
