 Q-Chem 5.4, Q-Chem, Inc., Pleasanton, CA (2021)
 Q-Chem 5.4.0 for Intel X86 EM64T Linux

User input:
--------------------------------------------------------------
$molecule
0 1
C	-0.124726	-3.887800	-0.713644
C	0.115824	-3.701456	0.650907
C	0.188844	-2.345170	1.068646
H	0.238841	-4.545233	1.346284
C	-0.000000	-1.450135	-0.000000
S	-0.264890	-2.321334	-1.504375
C	0.439816	-1.934439	2.492978
H	0.555669	-2.819799	3.147582
H	-0.394879	-1.326210	2.899931
H	1.362799	-1.325374	2.589982
H	-0.225628	-4.815326	-1.288299
C	0.000000	0.000000	0.000000
C	0.215623	0.816623	1.113020
C	0.571102	2.161411	0.820578
H	0.116470	0.441406	2.142881
C	0.634696	2.401276	-0.563588
S	0.247646	0.938489	-1.464748
C	0.843182	3.190669	1.882380
H	0.728628	2.757614	2.894974
H	0.148095	4.052998	1.808137
H	1.873652	3.596752	1.808230
H	0.879464	3.327513	-1.097114
$end

$rem
JOBTYPE		SP
EXCHANGE	HF
CORRELATION	pRIMP2
BASIS		cc-pvtz
METHOD		rimp2
AUX_BASIS	rimp2-cc-pvtz
SOLVENT_METHOD	PCM
PURECART	11111
SYMMETRY	false
MEM_TOTAL	110000
SCF_CONVERGENCE = 6
THRESH=10
GUI = 2
$end

$solvent
dielectric 4.90
$end
--------------------------------------------------------------

             Standard Nuclear Orientation (Angstroms)
    I     Atom           X                Y                Z
 ----------------------------------------------------------------
    1      C      -0.1247260000    -3.8878000000    -0.7136440000
    2      C       0.1158240000    -3.7014560000     0.6509070000
    3      C       0.1888440000    -2.3451700000     1.0686460000
    4      H       0.2388410000    -4.5452330000     1.3462840000
    5      C       0.0000000000    -1.4501350000     0.0000000000
    6      S      -0.2648900000    -2.3213340000    -1.5043750000
    7      C       0.4398160000    -1.9344390000     2.4929780000
    8      H       0.5556690000    -2.8197990000     3.1475820000
    9      H      -0.3948790000    -1.3262100000     2.8999310000
   10      H       1.3627990000    -1.3253740000     2.5899820000
   11      H      -0.2256280000    -4.8153260000    -1.2882990000
   12      C       0.0000000000     0.0000000000     0.0000000000
   13      C       0.2156230000     0.8166230000     1.1130200000
   14      C       0.5711020000     2.1614110000     0.8205780000
   15      H       0.1164700000     0.4414060000     2.1428810000
   16      C       0.6346960000     2.4012760000    -0.5635880000
   17      S       0.2476460000     0.9384890000    -1.4647480000
   18      C       0.8431820000     3.1906690000     1.8823800000
   19      H       0.7286280000     2.7576140000     2.8949740000
   20      H       0.1480950000     4.0529980000     1.8081370000
   21      H       1.8736520000     3.5967520000     1.8082300000
   22      H       0.8794640000     3.3275130000    -1.0971140000
 ----------------------------------------------------------------

   10   -1179.6803932565      4.92e-07  Convergence criterion met
 Total energy in the final basis set =    -1179.6803932565
        RIMP2         total energy =     -1181.6616801402 a.u.

                    Orbital Energies (a.u.)
 --------------------------------------------------------------

 Alpha MOs
 -- Occupied --
-91.9857 -91.9852 -11.2828 -11.2795 -11.2726 -11.2655 -11.2532 -11.2523
-11.2441 -11.2397 -11.2315 -11.2296  -8.9855  -8.9851  -6.6664  -6.6660
 -6.6659  -6.6655  -6.6652  -6.6649  -1.1814  -1.1503  -1.0413  -1.0278
 -0.9956  -0.9557  -0.9151  -0.8950  -0.8019  -0.7564  -0.7271  -0.7018
 -0.6614  -0.6147  -0.5920  -0.5824  -0.5703  -0.5629  -0.5513  -0.5404
 -0.5296  -0.5233  -0.5033  -0.4924  -0.4868  -0.4760  -0.4518  -0.3692
 -0.3473  -0.3378  -0.2696

          Ground-State Mulliken Net Atomic Charges

     Atom                 Charge (a.u.)
  ----------------------------------------
      1 C                    -0.214038
      2 C                    -0.251273
      3 C                     0.065937
      4 H                     0.185530
      5 C                    -0.044689
      6 S                     0.010399
      7 C                    -0.312320
      8 H                     0.118886
      9 H                     0.105777
     10 H                     0.114151
     11 H                     0.206775
     12 C                     0.039676
     13 C                    -0.266868
     14 C                     0.038085
     15 H                     0.196168
     16 C                    -0.254149
     17 S                     0.013387
     18 C                    -0.270294
     19 H                     0.101461
     20 H                     0.108592
     21 H                     0.109027
     22 H                     0.199782
  ----------------------------------------
  Sum of atomic charges =     0.000000

                    Cartesian Multipole Moments
 -----------------------------------------------------------------
    Charge (ESU x 10^10)
                -0.0000
    Dipole Moment (Debye)
         X       0.7620      Y       0.1824      Z       2.9893
       Tot       3.0903
    Quadrupole Moments (Debye-Ang)
        XX     -91.8443     XY       2.3418     YY     -69.1573
        XZ       1.4688     YZ      -1.1939     ZZ     -80.2349

 Total job time:  69.80s(wall), 1931.28s(cpu)
        *  Thank you very much for using Q-Chem.  Have a nice day.  *
