 Q-Chem 5.4, Q-Chem, Inc., Pleasanton, CA (2021)
 Q-Chem 5.4.0 for Intel X86 EM64T Linux

User input:
--------------------------------------------------------------
$molecule
0 1
C	-0.464838	-3.887800	-0.555670
C	0.425760	-3.701456	0.505790
C	0.697866	-2.345170	0.831053
H	0.879984	-4.545233	1.046496
C	0.000000	-1.450135	0.000000
S	-0.981588	-2.321334	-1.170382
C	1.627381	-1.934439	1.939074
H	2.055015	-2.819799	2.448051
H	1.107991	-1.326210	2.708853
H	2.475210	-1.325374	1.561590
H	-0.839549	-4.815326	-1.002886
C	0.000000	0.000000	0.000000
C	0.285976	0.794723	1.113020
C	0.757308	2.103412	0.820578
H	0.154498	0.429575	2.142881
C	0.841565	2.336821	-0.563588
S	0.328498	0.913334	-1.464748
C	1.118059	3.105040	1.882380
H	0.966197	2.683616	2.894974
H	0.500773	4.024668	1.808137
H	2.180000	3.419766	1.808230
H	1.166129	3.238200	-1.097114
$end

$rem
JOBTYPE		SP
EXCHANGE	HF
CORRELATION	pRIMP2
BASIS		cc-pvtz
METHOD		rimp2
AUX_BASIS	rimp2-cc-pvtz
SOLVENT_METHOD	PCM
PURECART	11111
SYMMETRY	false
MEM_TOTAL	110000
SCF_CONVERGENCE = 6
THRESH=10
GUI = 2
$end

$solvent
dielectric 4.90
$end
--------------------------------------------------------------

             Standard Nuclear Orientation (Angstroms)
    I     Atom           X                Y                Z
 ----------------------------------------------------------------
    1      C      -0.4648380000    -3.8878000000    -0.5556700000
    2      C       0.4257600000    -3.7014560000     0.5057900000
    3      C       0.6978660000    -2.3451700000     0.8310530000
    4      H       0.8799840000    -4.5452330000     1.0464960000
    5      C       0.0000000000    -1.4501350000     0.0000000000
    6      S      -0.9815880000    -2.3213340000    -1.1703820000
    7      C       1.6273810000    -1.9344390000     1.9390740000
    8      H       2.0550150000    -2.8197990000     2.4480510000
    9      H       1.1079910000    -1.3262100000     2.7088530000
   10      H       2.4752100000    -1.3253740000     1.5615900000
   11      H      -0.8395490000    -4.8153260000    -1.0028860000
   12      C       0.0000000000     0.0000000000     0.0000000000
   13      C       0.2859760000     0.7947230000     1.1130200000
   14      C       0.7573080000     2.1034120000     0.8205780000
   15      H       0.1544980000     0.4295750000     2.1428810000
   16      C       0.8415650000     2.3368210000    -0.5635880000
   17      S       0.3284980000     0.9133340000    -1.4647480000
   18      C       1.1180590000     3.1050400000     1.8823800000
   19      H       0.9661970000     2.6836160000     2.8949740000
   20      H       0.5007730000     4.0246680000     1.8081370000
   21      H       2.1800000000     3.4197660000     1.8082300000
   22      H       1.1661290000     3.2382000000    -1.0971140000
 ----------------------------------------------------------------

   10   -1179.6784439436      5.21e-07  Convergence criterion met
 Total energy in the final basis set =    -1179.6784439436
        RIMP2         total energy =     -1181.6597336416 a.u.

                    Orbital Energies (a.u.)
 --------------------------------------------------------------

 Alpha MOs
 -- Occupied --
-91.9853 -91.9840 -11.2788 -11.2767 -11.2722 -11.2669 -11.2530 -11.2521
-11.2431 -11.2420 -11.2298 -11.2293  -8.9850  -8.9838  -6.6659  -6.6653
 -6.6648  -6.6647  -6.6642  -6.6636  -1.1802  -1.1498  -1.0407  -1.0249
 -0.9959  -0.9550  -0.9136  -0.8937  -0.8002  -0.7542  -0.7298  -0.6991
 -0.6608  -0.6157  -0.5885  -0.5808  -0.5707  -0.5630  -0.5507  -0.5372
 -0.5288  -0.5222  -0.5063  -0.4924  -0.4842  -0.4701  -0.4569  -0.3553
 -0.3431  -0.3402  -0.2781

          Ground-State Mulliken Net Atomic Charges

     Atom                 Charge (a.u.)
  ----------------------------------------
      1 C                    -0.211323
      2 C                    -0.250446
      3 C                     0.060528
      4 H                     0.185234
      5 C                    -0.033718
      6 S                     0.016622
      7 C                    -0.295416
      8 H                     0.114422
      9 H                     0.105215
     10 H                     0.117236
     11 H                     0.205105
     12 C                    -0.001100
     13 C                    -0.279216
     14 C                     0.046441
     15 H                     0.191906
     16 C                    -0.246376
     17 S                     0.026200
     18 C                    -0.269852
     19 H                     0.102255
     20 H                     0.108893
     21 H                     0.108519
     22 H                     0.198872
  ----------------------------------------
  Sum of atomic charges =     0.000000

                    Cartesian Multipole Moments
 -----------------------------------------------------------------
    Charge (ESU x 10^10)
                -0.0000
    Dipole Moment (Debye)
         X       1.6739      Y       0.2748      Z       2.6938
       Tot       3.1834
    Quadrupole Moments (Debye-Ang)
        XX     -88.7445     XY       2.1278     YY     -69.9667
        XZ       3.6216     YZ      -0.6675     ZZ     -82.8953

 Total job time:  52.13s(wall), 1764.86s(cpu)
        *  Thank you very much for using Q-Chem.  Have a nice day.  *
