 Q-Chem 5.4, Q-Chem, Inc., Pleasanton, CA (2021)
 Q-Chem 5.4.0 for Intel X86 EM64T Linux

User input:
--------------------------------------------------------------
$molecule
0 1
C	-0.126876	-3.887800	0.713264
C	0.113784	-3.701456	-0.651267
C	0.188043	-2.345170	-1.068787
H	0.236019	-4.545233	-1.346782
C	-0.000000	-1.450135	-0.000000
S	-0.265612	-2.321334	1.504247
C	0.439357	-1.934439	-2.493059
H	0.554378	-2.819799	-3.147809
H	1.362899	-1.326210	-2.589987
H	-0.394786	-1.325374	-2.899892
H	-0.228603	-4.815326	1.287774
C	0.000000	0.000000	0.000000
C	0.540541	0.648986	1.113020
C	1.431046	1.717546	0.820578
H	0.292104	0.350827	2.142881
C	1.590053	1.908061	-0.563588
S	0.621066	0.745901	-1.464748
C	2.112618	2.535384	1.882380
H	1.825779	2.191315	2.894974
H	1.847090	3.610676	1.808137
H	3.218159	2.467925	1.808230
H	2.203332	2.644073	-1.097114
$end

$rem
JOBTYPE		SP
EXCHANGE	HF
CORRELATION	pRIMP2
BASIS		cc-pvtz
METHOD		rimp2
AUX_BASIS	rimp2-cc-pvtz
SOLVENT_METHOD	PCM
PURECART	11111
SYMMETRY	false
MEM_TOTAL	110000
SCF_CONVERGENCE = 6
THRESH=10
GUI = 2
$end

$solvent
dielectric 4.90
$end
--------------------------------------------------------------

             Standard Nuclear Orientation (Angstroms)
    I     Atom           X                Y                Z
 ----------------------------------------------------------------
    1      C      -0.1268760000    -3.8878000000     0.7132640000
    2      C       0.1137840000    -3.7014560000    -0.6512670000
    3      C       0.1880430000    -2.3451700000    -1.0687870000
    4      H       0.2360190000    -4.5452330000    -1.3467820000
    5      C       0.0000000000    -1.4501350000     0.0000000000
    6      S      -0.2656120000    -2.3213340000     1.5042470000
    7      C       0.4393570000    -1.9344390000    -2.4930590000
    8      H       0.5543780000    -2.8197990000    -3.1478090000
    9      H       1.3628990000    -1.3262100000    -2.5899870000
   10      H      -0.3947860000    -1.3253740000    -2.8998920000
   11      H      -0.2286030000    -4.8153260000     1.2877740000
   12      C       0.0000000000     0.0000000000     0.0000000000
   13      C       0.5405410000     0.6489860000     1.1130200000
   14      C       1.4310460000     1.7175460000     0.8205780000
   15      H       0.2921040000     0.3508270000     2.1428810000
   16      C       1.5900530000     1.9080610000    -0.5635880000
   17      S       0.6210660000     0.7459010000    -1.4647480000
   18      C       2.1126180000     2.5353840000     1.8823800000
   19      H       1.8257790000     2.1913150000     2.8949740000
   20      H       1.8470900000     3.6106760000     1.8081370000
   21      H       3.2181590000     2.4679250000     1.8082300000
   22      H       2.2033320000     2.6440730000    -1.0971140000
 ----------------------------------------------------------------

   10   -1179.6473358792      7.82e-07  Convergence criterion met
 Total energy in the final basis set =    -1179.6473358792
        RIMP2         total energy =     -1181.6378915172 a.u.

                    Orbital Energies (a.u.)
 --------------------------------------------------------------

 Alpha MOs
 -- Occupied --
-91.9831 -91.9799 -11.2799 -11.2739 -11.2734 -11.2652 -11.2530 -11.2495
-11.2439 -11.2408 -11.2299 -11.2250  -8.9837  -8.9801  -6.6644  -6.6637
 -6.6632  -6.6611  -6.6605  -6.6599  -1.1846  -1.1479  -1.0437  -1.0232
 -0.9982  -0.9513  -0.9120  -0.8959  -0.7956  -0.7652  -0.7217  -0.6948
 -0.6585  -0.6172  -0.5856  -0.5824  -0.5777  -0.5695  -0.5510  -0.5330
 -0.5228  -0.5221  -0.5117  -0.4960  -0.4785  -0.4631  -0.4463  -0.3702
 -0.3408  -0.3377  -0.2649

          Ground-State Mulliken Net Atomic Charges

     Atom                 Charge (a.u.)
  ----------------------------------------
      1 C                    -0.224268
      2 C                    -0.250946
      3 C                     0.044316
      4 H                     0.184652
      5 C                    -0.031414
      6 S                    -0.007708
      7 C                    -0.306946
      8 H                     0.110160
      9 H                     0.118214
     10 H                     0.110229
     11 H                     0.203669
     12 C                    -0.008995
     13 C                    -0.199807
     14 C                     0.018151
     15 H                     0.180401
     16 C                    -0.229425
     17 S                     0.037892
     18 C                    -0.267271
     19 H                     0.103070
     20 H                     0.108379
     21 H                     0.107218
     22 H                     0.200428
  ----------------------------------------
  Sum of atomic charges =     0.000000

                    Cartesian Multipole Moments
 -----------------------------------------------------------------
    Charge (ESU x 10^10)
                -0.0000
    Dipole Moment (Debye)
         X       1.9025      Y       0.7660      Z      -0.1318
       Tot       2.0552
    Quadrupole Moments (Debye-Ang)
        XX     -87.6067     XY       5.1902     YY     -75.4819
        XZ      -0.6996     YZ       3.1669     ZZ     -80.0304

 Total job time:  56.40s(wall), 2004.09s(cpu)
        *  Thank you very much for using Q-Chem.  Have a nice day.  *
