 Q-Chem 5.4, Q-Chem, Inc., Pleasanton, CA (2021)
 Q-Chem 5.4.0 for Intel X86 EM64T Linux

User input:
--------------------------------------------------------------
$molecule
0 1
C	0.674034	-3.828925	0.724460
C	0.641731	-3.645403	-0.661131
C	0.406834	-2.309612	-1.085203
H	0.787861	-4.476429	-1.367305
C	0.251813	-1.428104	0.000000
S	0.402734	-2.286131	1.527517
C	0.335682	-1.905091	-2.531478
H	0.489007	-2.777074	-3.196254
H	1.109183	-1.151090	-2.787305
H	-0.648644	-1.460194	-2.787282
H	0.834685	-4.742433	1.307907
C	0.000000	0.000000	0.000000
C	0.540541	0.648986	1.113020
C	1.431046	1.717546	0.820578
H	0.292104	0.350827	2.142881
C	1.590053	1.908061	-0.563588
S	0.621066	0.745901	-1.464748
C	2.112618	2.535384	1.882380
H	1.825779	2.191315	2.894974
H	1.847090	3.610676	1.808137
H	3.218159	2.467925	1.808230
H	2.203332	2.644073	-1.097114
$end

$rem
JOBTYPE		SP
EXCHANGE	HF
CORRELATION	pRIMP2
BASIS		cc-pvtz
METHOD		rimp2
AUX_BASIS	rimp2-cc-pvtz
SOLVENT_METHOD	PCM
PURECART	11111
SYMMETRY	false
MEM_TOTAL	110000
SCF_CONVERGENCE = 6
THRESH=10
GUI = 2
$end

$solvent
dielectric 4.90
$end
--------------------------------------------------------------

             Standard Nuclear Orientation (Angstroms)
    I     Atom           X                Y                Z
 ----------------------------------------------------------------
    1      C       0.6740340000    -3.8289250000     0.7244600000
    2      C       0.6417310000    -3.6454030000    -0.6611310000
    3      C       0.4068340000    -2.3096120000    -1.0852030000
    4      H       0.7878610000    -4.4764290000    -1.3673050000
    5      C       0.2518130000    -1.4281040000     0.0000000000
    6      S       0.4027340000    -2.2861310000     1.5275170000
    7      C       0.3356820000    -1.9050910000    -2.5314780000
    8      H       0.4890070000    -2.7770740000    -3.1962540000
    9      H       1.1091830000    -1.1510900000    -2.7873050000
   10      H      -0.6486440000    -1.4601940000    -2.7872820000
   11      H       0.8346850000    -4.7424330000     1.3079070000
   12      C       0.0000000000     0.0000000000     0.0000000000
   13      C       0.5405410000     0.6489860000     1.1130200000
   14      C       1.4310460000     1.7175460000     0.8205780000
   15      H       0.2921040000     0.3508270000     2.1428810000
   16      C       1.5900530000     1.9080610000    -0.5635880000
   17      S       0.6210660000     0.7459010000    -1.4647480000
   18      C       2.1126180000     2.5353840000     1.8823800000
   19      H       1.8257790000     2.1913150000     2.8949740000
   20      H       1.8470900000     3.6106760000     1.8081370000
   21      H       3.2181590000     2.4679250000     1.8082300000
   22      H       2.2033320000     2.6440730000    -1.0971140000
 ----------------------------------------------------------------

   11   -1179.6283638724      5.74e-07  Convergence criterion met
 Total energy in the final basis set =    -1179.6283638724
        RIMP2         total energy =     -1181.6230007153 a.u.

                    Orbital Energies (a.u.)
 --------------------------------------------------------------

 Alpha MOs
 -- Occupied --
-91.9832 -91.9776 -11.2815 -11.2799 -11.2673 -11.2608 -11.2570 -11.2544
-11.2395 -11.2381 -11.2308 -11.2232  -8.9841  -8.9779  -6.6647  -6.6640
 -6.6635  -6.6589  -6.6583  -6.6577  -1.1884  -1.1466  -1.0454  -1.0230
 -0.9991  -0.9499  -0.9122  -0.8954  -0.7951  -0.7666  -0.7232  -0.6932
 -0.6568  -0.6191  -0.5881  -0.5838  -0.5770  -0.5698  -0.5507  -0.5336
 -0.5252  -0.5194  -0.5114  -0.4956  -0.4742  -0.4616  -0.4443  -0.3693
 -0.3422  -0.3367  -0.2629

          Ground-State Mulliken Net Atomic Charges

     Atom                 Charge (a.u.)
  ----------------------------------------
      1 C                    -0.235259
      2 C                    -0.248566
      3 C                     0.033424
      4 H                     0.183533
      5 C                    -0.019564
      6 S                    -0.015894
      7 C                    -0.309513
      8 H                     0.109009
      9 H                     0.115488
     10 H                     0.112267
     11 H                     0.201924
     12 C                    -0.047384
     13 C                    -0.168634
     14 C                     0.008628
     15 H                     0.184396
     16 C                    -0.209429
     17 S                     0.050314
     18 C                    -0.265514
     19 H                     0.103492
     20 H                     0.108328
     21 H                     0.107233
     22 H                     0.201721
  ----------------------------------------
  Sum of atomic charges =     0.000000

                    Cartesian Multipole Moments
 -----------------------------------------------------------------
    Charge (ESU x 10^10)
                -0.0000
    Dipole Moment (Debye)
         X       2.0391      Y       1.4743      Z      -0.0723
       Tot       2.5173
    Quadrupole Moments (Debye-Ang)
        XX     -87.2130     XY       4.4238     YY     -76.6472
        XZ      -0.1885     YZ       3.2209     ZZ     -79.8014

 Total job time:  58.02s(wall), 1911.63s(cpu)
        *  Thank you very much for using Q-Chem.  Have a nice day.  *
