 Q-Chem 5.4, Q-Chem, Inc., Pleasanton, CA (2021)
 Q-Chem 5.4.0 for Intel X86 EM64T Linux

User input:
--------------------------------------------------------------
$molecule
0 1
C	0.627947	-3.887800	-0.361285
C	-0.572038	-3.701456	0.331462
C	-0.939610	-2.345170	0.542953
H	-1.183405	-4.545233	0.684893
C	0.000000	-1.450135	0.000000
S	1.323052	-2.321334	-0.763441
C	-2.192207	-1.934439	1.265941
H	-2.767709	-2.819799	1.598695
H	-2.860100	-1.326210	0.620770
H	-1.967682	-1.325374	2.166438
H	1.133436	-4.815326	-0.652645
C	0.000000	0.000000	0.000000
C	0.729909	0.424971	1.113020
C	1.932179	1.124518	0.820578
H	0.394478	0.229765	2.142881
C	2.146756	1.249161	-0.563588
S	0.838724	0.488500	-1.464748
C	2.852364	1.659924	1.882380
H	2.465145	1.434710	2.894974
H	2.970621	2.761183	1.808137
H	3.868160	1.218416	1.808230
H	2.974781	1.731032	-1.097114
$end

$rem
JOBTYPE		SP
EXCHANGE	HF
CORRELATION	pRIMP2
BASIS		cc-pvtz
METHOD		rimp2
AUX_BASIS	rimp2-cc-pvtz
SOLVENT_METHOD	PCM
PURECART	11111
SYMMETRY	false
MEM_TOTAL	110000
SCF_CONVERGENCE = 6
THRESH=10
GUI = 2
$end

$solvent
dielectric 4.90
$end
--------------------------------------------------------------

             Standard Nuclear Orientation (Angstroms)
    I     Atom           X                Y                Z
 ----------------------------------------------------------------
    1      C       0.6279470000    -3.8878000000    -0.3612850000
    2      C      -0.5720380000    -3.7014560000     0.3314620000
    3      C      -0.9396100000    -2.3451700000     0.5429530000
    4      H      -1.1834050000    -4.5452330000     0.6848930000
    5      C       0.0000000000    -1.4501350000     0.0000000000
    6      S       1.3230520000    -2.3213340000    -0.7634410000
    7      C      -2.1922070000    -1.9344390000     1.2659410000
    8      H      -2.7677090000    -2.8197990000     1.5986950000
    9      H      -2.8601000000    -1.3262100000     0.6207700000
   10      H      -1.9676820000    -1.3253740000     2.1664380000
   11      H       1.1334360000    -4.8153260000    -0.6526450000
   12      C       0.0000000000     0.0000000000     0.0000000000
   13      C       0.7299090000     0.4249710000     1.1130200000
   14      C       1.9321790000     1.1245180000     0.8205780000
   15      H       0.3944780000     0.2297650000     2.1428810000
   16      C       2.1467560000     1.2491610000    -0.5635880000
   17      S       0.8387240000     0.4885000000    -1.4647480000
   18      C       2.8523640000     1.6599240000     1.8823800000
   19      H       2.4651450000     1.4347100000     2.8949740000
   20      H       2.9706210000     2.7611830000     1.8081370000
   21      H       3.8681600000     1.2184160000     1.8082300000
   22      H       2.9747810000     1.7310320000    -1.0971140000
 ----------------------------------------------------------------

   10   -1179.6140244118      9.31e-07  Convergence criterion met
 Total energy in the final basis set =    -1179.6140244118
        RIMP2         total energy =     -1181.6082784239 a.u.

                    Orbital Energies (a.u.)
 --------------------------------------------------------------

 Alpha MOs
 -- Occupied --
-91.9843 -91.9749 -11.2924 -11.2743 -11.2678 -11.2568 -11.2549 -11.2540
-11.2350 -11.2328 -11.2318 -11.2240  -8.9852  -8.9751  -6.6659  -6.6650
 -6.6648  -6.6559  -6.6553  -6.6547  -1.1924  -1.1439  -1.0467  -1.0170
 -0.9992  -0.9530  -0.9094  -0.8905  -0.7987  -0.7489  -0.7390  -0.6918
 -0.6539  -0.6223  -0.5898  -0.5794  -0.5678  -0.5658  -0.5477  -0.5358
 -0.5333  -0.5153  -0.5064  -0.4888  -0.4766  -0.4575  -0.4511  -0.3640
 -0.3393  -0.3203  -0.2766

          Ground-State Mulliken Net Atomic Charges

     Atom                 Charge (a.u.)
  ----------------------------------------
      1 C                    -0.253314
      2 C                    -0.241280
      3 C                     0.006050
      4 H                     0.180483
      5 C                    -0.016735
      6 S                     0.016223
      7 C                    -0.288136
      8 H                     0.104960
      9 H                     0.106380
     10 H                     0.102412
     11 H                     0.199309
     12 C                    -0.125643
     13 C                    -0.081440
     14 C                    -0.021122
     15 H                     0.193981
     16 C                    -0.167004
     17 S                     0.030158
     18 C                    -0.266893
     19 H                     0.103311
     20 H                     0.108013
     21 H                     0.106691
     22 H                     0.203595
  ----------------------------------------
  Sum of atomic charges =     0.000000

                    Cartesian Multipole Moments
 -----------------------------------------------------------------
    Charge (ESU x 10^10)
                -0.0000
    Dipole Moment (Debye)
         X       1.8013      Y       1.3018      Z       2.3217
       Tot       3.2140
    Quadrupole Moments (Debye-Ang)
        XX     -78.5883     XY       7.7768     YY     -81.5099
        XZ      -1.8657     YZ      -0.6587     ZZ     -84.0350

 Total job time:  49.01s(wall), 1748.59s(cpu)
        *  Thank you very much for using Q-Chem.  Have a nice day.  *
