 Q-Chem 5.4, Q-Chem, Inc., Pleasanton, CA (2021)
 Q-Chem 5.4.0 for Intel X86 EM64T Linux

User input:
--------------------------------------------------------------
$molecule
0 1
C	-0.361285	-3.887800	-0.627947
C	0.331462	-3.701456	0.572038
C	0.542953	-2.345170	0.939610
H	0.684893	-4.545233	1.183405
C	0.000000	-1.450135	0.000000
S	-0.763441	-2.321334	-1.323052
C	1.265941	-1.934439	2.192207
H	1.598695	-2.819799	2.767709
H	0.620770	-1.326210	2.860100
H	2.166438	-1.325374	1.967682
H	-0.652645	-4.815326	-1.133436
C	0.000000	0.000000	0.000000
C	0.143630	0.832309	1.113020
C	0.380550	2.202961	0.820578
H	0.077556	0.449877	2.142881
C	0.422995	2.447456	-0.563588
S	0.164909	0.956502	-1.464748
C	0.561888	3.252016	1.882380
H	0.485513	2.810624	2.894974
H	-0.205711	4.050482	1.808137
H	1.553045	3.746365	1.808230
H	0.586105	3.391501	-1.097114
$end

$rem
JOBTYPE		SP
EXCHANGE	HF
CORRELATION	pRIMP2
BASIS		cc-pvtz
METHOD		rimp2
AUX_BASIS	rimp2-cc-pvtz
SOLVENT_METHOD	PCM
PURECART	11111
SYMMETRY	false
MEM_TOTAL	110000
SCF_CONVERGENCE = 6
THRESH=10
GUI = 2
$end

$solvent
dielectric 4.90
$end
--------------------------------------------------------------

             Standard Nuclear Orientation (Angstroms)
    I     Atom           X                Y                Z
 ----------------------------------------------------------------
    1      C      -0.3612850000    -3.8878000000    -0.6279470000
    2      C       0.3314620000    -3.7014560000     0.5720380000
    3      C       0.5429530000    -2.3451700000     0.9396100000
    4      H       0.6848930000    -4.5452330000     1.1834050000
    5      C       0.0000000000    -1.4501350000     0.0000000000
    6      S      -0.7634410000    -2.3213340000    -1.3230520000
    7      C       1.2659410000    -1.9344390000     2.1922070000
    8      H       1.5986950000    -2.8197990000     2.7677090000
    9      H       0.6207700000    -1.3262100000     2.8601000000
   10      H       2.1664380000    -1.3253740000     1.9676820000
   11      H      -0.6526450000    -4.8153260000    -1.1334360000
   12      C       0.0000000000     0.0000000000     0.0000000000
   13      C       0.1436300000     0.8323090000     1.1130200000
   14      C       0.3805500000     2.2029610000     0.8205780000
   15      H       0.0775560000     0.4498770000     2.1428810000
   16      C       0.4229950000     2.4474560000    -0.5635880000
   17      S       0.1649090000     0.9565020000    -1.4647480000
   18      C       0.5618880000     3.2520160000     1.8823800000
   19      H       0.4855130000     2.8106240000     2.8949740000
   20      H      -0.2057110000     4.0504820000     1.8081370000
   21      H       1.5530450000     3.7463650000     1.8082300000
   22      H       0.5861050000     3.3915010000    -1.0971140000
 ----------------------------------------------------------------

   10   -1179.6838889253      5.19e-07  Convergence criterion met
 Total energy in the final basis set =    -1179.6838889253
        RIMP2         total energy =     -1181.6638326494 a.u.

                    Orbital Energies (a.u.)
 --------------------------------------------------------------

 Alpha MOs
 -- Occupied --
-91.9859 -91.9856 -11.2824 -11.2781 -11.2731 -11.2646 -11.2539 -11.2521
-11.2440 -11.2398 -11.2305 -11.2295  -8.9856  -8.9854  -6.6665  -6.6663
 -6.6660  -6.6657  -6.6653  -6.6651  -1.1803  -1.1503  -1.0407  -1.0263
 -0.9959  -0.9556  -0.9142  -0.8943  -0.8015  -0.7553  -0.7284  -0.6999
 -0.6617  -0.6153  -0.5898  -0.5814  -0.5704  -0.5629  -0.5511  -0.5385
 -0.5296  -0.5223  -0.5048  -0.4925  -0.4874  -0.4732  -0.4553  -0.3620
 -0.3448  -0.3394  -0.2744

          Ground-State Mulliken Net Atomic Charges

     Atom                 Charge (a.u.)
  ----------------------------------------
      1 C                    -0.212727
      2 C                    -0.250278
      3 C                     0.063355
      4 H                     0.185191
      5 C                    -0.039602
      6 S                     0.015528
      7 C                    -0.303024
      8 H                     0.115265
      9 H                     0.105400
     10 H                     0.118228
     11 H                     0.205908
     12 C                     0.018216
     13 C                    -0.266237
     14 C                     0.036932
     15 H                     0.193764
     16 C                    -0.253091
     17 S                     0.019777
     18 C                    -0.271075
     19 H                     0.101924
     20 H                     0.108822
     21 H                     0.108813
     22 H                     0.198911
  ----------------------------------------
  Sum of atomic charges =     0.000000

                    Cartesian Multipole Moments
 -----------------------------------------------------------------
    Charge (ESU x 10^10)
                -0.0000
    Dipole Moment (Debye)
         X       1.0865      Y       0.1577      Z       2.7982
       Tot       3.0058
    Quadrupole Moments (Debye-Ang)
        XX     -90.7730     XY       0.7418     YY     -68.7213
        XZ       3.1029     YZ      -0.8172     ZZ     -81.7857

 Total job time:  54.53s(wall), 1853.80s(cpu)
        *  Thank you very much for using Q-Chem.  Have a nice day.  *
