 Q-Chem 5.4, Q-Chem, Inc., Pleasanton, CA (2021)
 Q-Chem 5.4.0 for Intel X86 EM64T Linux

User input:
--------------------------------------------------------------
$molecule
0 1
C	-0.680396	-3.887800	-0.248806
C	0.621614	-3.701456	0.225147
C	1.019896	-2.345170	0.370780
H	1.285337	-4.545233	0.466300
C	-0.000000	-1.450135	-0.000000
S	-1.435271	-2.321334	-0.522786
C	2.378891	-1.934439	0.865597
H	3.003720	-2.819799	1.092567
H	2.313975	-1.326210	1.791940
H	2.924390	-1.325374	0.114772
H	-1.228514	-4.815326	-0.448750
C	0.000000	0.000000	0.000000
C	0.540541	0.648986	1.113020
C	1.431046	1.717546	0.820578
H	0.292104	0.350827	2.142881
C	1.590053	1.908061	-0.563588
S	0.621066	0.745901	-1.464748
C	2.112618	2.535384	1.882380
H	1.825779	2.191315	2.894974
H	1.847090	3.610676	1.808137
H	3.218159	2.467925	1.808230
H	2.203332	2.644073	-1.097114
$end

$rem
JOBTYPE		SP
EXCHANGE	HF
CORRELATION	pRIMP2
BASIS		cc-pvtz
METHOD		rimp2
AUX_BASIS	rimp2-cc-pvtz
SOLVENT_METHOD	PCM
PURECART	11111
SYMMETRY	false
MEM_TOTAL	110000
SCF_CONVERGENCE = 6
THRESH=10
GUI = 2
$end

$solvent
dielectric 4.90
$end
--------------------------------------------------------------

             Standard Nuclear Orientation (Angstroms)
    I     Atom           X                Y                Z
 ----------------------------------------------------------------
    1      C      -0.6803960000    -3.8878000000    -0.2488060000
    2      C       0.6216140000    -3.7014560000     0.2251470000
    3      C       1.0198960000    -2.3451700000     0.3707800000
    4      H       1.2853370000    -4.5452330000     0.4663000000
    5      C       0.0000000000    -1.4501350000     0.0000000000
    6      S      -1.4352710000    -2.3213340000    -0.5227860000
    7      C       2.3788910000    -1.9344390000     0.8655970000
    8      H       3.0037200000    -2.8197990000     1.0925670000
    9      H       2.3139750000    -1.3262100000     1.7919400000
   10      H       2.9243900000    -1.3253740000     0.1147720000
   11      H      -1.2285140000    -4.8153260000    -0.4487500000
   12      C       0.0000000000     0.0000000000     0.0000000000
   13      C       0.5405410000     0.6489860000     1.1130200000
   14      C       1.4310460000     1.7175460000     0.8205780000
   15      H       0.2921040000     0.3508270000     2.1428810000
   16      C       1.5900530000     1.9080610000    -0.5635880000
   17      S       0.6210660000     0.7459010000    -1.4647480000
   18      C       2.1126180000     2.5353840000     1.8823800000
   19      H       1.8257790000     2.1913150000     2.8949740000
   20      H       1.8470900000     3.6106760000     1.8081370000
   21      H       3.2181590000     2.4679250000     1.8082300000
   22      H       2.2033320000     2.6440730000    -1.0971140000
 ----------------------------------------------------------------

   10   -1179.6567029075      7.39e-07  Convergence criterion met
 Total energy in the final basis set =    -1179.6567029075
        RIMP2         total energy =     -1181.6439374024 a.u.

                    Orbital Energies (a.u.)
 --------------------------------------------------------------

 Alpha MOs
 -- Occupied --
-91.9839 -91.9792 -11.2762 -11.2731 -11.2682 -11.2661 -11.2523 -11.2508
-11.2488 -11.2401 -11.2305 -11.2273  -8.9838  -8.9791  -6.6647  -6.6640
 -6.6635  -6.6600  -6.6594  -6.6589  -1.1816  -1.1479  -1.0414  -1.0205
 -0.9970  -0.9534  -0.9128  -0.8915  -0.7963  -0.7507  -0.7352  -0.6960
 -0.6583  -0.6177  -0.5843  -0.5806  -0.5714  -0.5668  -0.5498  -0.5334
 -0.5266  -0.5222  -0.5108  -0.4899  -0.4747  -0.4641  -0.4573  -0.3447
 -0.3401  -0.3270  -0.2940

          Ground-State Mulliken Net Atomic Charges

     Atom                 Charge (a.u.)
  ----------------------------------------
      1 C                    -0.213993
      2 C                    -0.256368
      3 C                     0.064153
      4 H                     0.184457
      5 C                    -0.026146
      6 S                     0.012345
      7 C                    -0.296000
      8 H                     0.114338
      9 H                     0.109901
     10 H                     0.115226
     11 H                     0.202117
     12 C                    -0.071909
     13 C                    -0.241233
     14 C                     0.046418
     15 H                     0.193097
     16 C                    -0.221690
     17 S                     0.033111
     18 C                    -0.269264
     19 H                     0.103235
     20 H                     0.110607
     21 H                     0.106980
     22 H                     0.200617
  ----------------------------------------
  Sum of atomic charges =     0.000000

                    Cartesian Multipole Moments
 -----------------------------------------------------------------
    Charge (ESU x 10^10)
                -0.0000
    Dipole Moment (Debye)
         X       3.0797      Y       0.6207      Z       2.1324
       Tot       3.7970
    Quadrupole Moments (Debye-Ang)
        XX     -82.4358     XY       3.5280     YY     -74.3479
        XZ       2.6380     YZ      -0.0137     ZZ     -85.7028

 Total job time:  57.03s(wall), 1913.12s(cpu)
        *  Thank you very much for using Q-Chem.  Have a nice day.  *
