 Q-Chem 5.4, Q-Chem, Inc., Pleasanton, CA (2021)
 Q-Chem 5.4.0 for Intel X86 EM64T Linux

User input:
--------------------------------------------------------------
$molecule
0 1
C	0.555670	-3.887800	-0.464838
C	-0.505790	-3.701456	0.425760
C	-0.831053	-2.345170	0.697866
H	-1.046496	-4.545233	0.879984
C	0.000000	-1.450135	0.000000
S	1.170382	-2.321334	-0.981588
C	-1.939074	-1.934439	1.627381
H	-2.448051	-2.819799	2.055015
H	-2.708853	-1.326210	1.107991
H	-1.561590	-1.325374	2.475210
H	1.002886	-4.815326	-0.839549
C	0.000000	0.000000	0.000000
C	-0.003081	0.844605	1.113020
C	-0.007772	2.235575	0.820578
H	-0.001743	0.456510	2.142881
C	-0.008427	2.483726	-0.563588
S	-0.003691	0.970607	-1.464748
C	-0.011355	3.300181	1.882380
H	-0.009922	2.852233	2.894974
H	-0.905944	3.953225	1.808137
H	0.878901	3.959133	1.808230
H	-0.011727	3.441752	-1.097114
$end

$rem
JOBTYPE		SP
EXCHANGE	HF
CORRELATION	pRIMP2
BASIS		cc-pvtz
METHOD		rimp2
AUX_BASIS	rimp2-cc-pvtz
SOLVENT_METHOD	PCM
PURECART	11111
SYMMETRY	false
MEM_TOTAL	110000
SCF_CONVERGENCE = 6
THRESH=10
GUI = 2
$end

$solvent
dielectric 4.90
$end
--------------------------------------------------------------

             Standard Nuclear Orientation (Angstroms)
    I     Atom           X                Y                Z
 ----------------------------------------------------------------
    1      C       0.5556700000    -3.8878000000    -0.4648380000
    2      C      -0.5057900000    -3.7014560000     0.4257600000
    3      C      -0.8310530000    -2.3451700000     0.6978660000
    4      H      -1.0464960000    -4.5452330000     0.8799840000
    5      C       0.0000000000    -1.4501350000     0.0000000000
    6      S       1.1703820000    -2.3213340000    -0.9815880000
    7      C      -1.9390740000    -1.9344390000     1.6273810000
    8      H      -2.4480510000    -2.8197990000     2.0550150000
    9      H      -2.7088530000    -1.3262100000     1.1079910000
   10      H      -1.5615900000    -1.3253740000     2.4752100000
   11      H       1.0028860000    -4.8153260000    -0.8395490000
   12      C       0.0000000000     0.0000000000     0.0000000000
   13      C      -0.0030810000     0.8446050000     1.1130200000
   14      C      -0.0077720000     2.2355750000     0.8205780000
   15      H      -0.0017430000     0.4565100000     2.1428810000
   16      C      -0.0084270000     2.4837260000    -0.5635880000
   17      S      -0.0036910000     0.9706070000    -1.4647480000
   18      C      -0.0113550000     3.3001810000     1.8823800000
   19      H      -0.0099220000     2.8522330000     2.8949740000
   20      H      -0.9059440000     3.9532250000     1.8081370000
   21      H       0.8789010000     3.9591330000     1.8082300000
   22      H      -0.0117270000     3.4417520000    -1.0971140000
 ----------------------------------------------------------------

   10   -1179.6868525783      5.22e-07  Convergence criterion met
 Total energy in the final basis set =    -1179.6868525783
        RIMP2         total energy =     -1181.6651062050 a.u.

                    Orbital Energies (a.u.)
 --------------------------------------------------------------

 Alpha MOs
 -- Occupied --
-91.9863 -91.9858 -11.2814 -11.2761 -11.2729 -11.2644 -11.2536 -11.2517
-11.2432 -11.2406 -11.2295 -11.2294  -8.9857  -8.9854  -6.6666  -6.6663
 -6.6661  -6.6658  -6.6655  -6.6652  -1.1790  -1.1500  -1.0400  -1.0245
 -0.9961  -0.9553  -0.9131  -0.8935  -0.8012  -0.7534  -0.7300  -0.6971
 -0.6620  -0.6158  -0.5855  -0.5803  -0.5701  -0.5652  -0.5517  -0.5348
 -0.5293  -0.5210  -0.5063  -0.4920  -0.4889  -0.4699  -0.4589  -0.3521
 -0.3418  -0.3385  -0.2833

          Ground-State Mulliken Net Atomic Charges

     Atom                 Charge (a.u.)
  ----------------------------------------
      1 C                    -0.213376
      2 C                    -0.249593
      3 C                     0.043478
      4 H                     0.185549
      5 C                    -0.037592
      6 S                     0.020120
      7 C                    -0.285258
      8 H                     0.110822
      9 H                     0.113589
     10 H                     0.107263
     11 H                     0.204768
     12 C                     0.000142
     13 C                    -0.234680
     14 C                     0.018134
     15 H                     0.191995
     16 C                    -0.241644
     17 S                     0.020072
     18 C                    -0.271946
     19 H                     0.102347
     20 H                     0.108173
     21 H                     0.108840
     22 H                     0.198795
  ----------------------------------------
  Sum of atomic charges =     0.000000

                    Cartesian Multipole Moments
 -----------------------------------------------------------------
    Charge (ESU x 10^10)
                -0.0000
    Dipole Moment (Debye)
         X      -1.1673      Y       0.2079      Z       2.4509
       Tot       2.7226
    Quadrupole Moments (Debye-Ang)
        XX     -88.8959     XY       1.6225     YY     -68.5871
        XZ      -3.2564     YZ      -0.3010     ZZ     -84.0176

 Total job time:  52.20s(wall), 1734.39s(cpu)
        *  Thank you very much for using Q-Chem.  Have a nice day.  *
