 Q-Chem 5.4, Q-Chem, Inc., Pleasanton, CA (2021)
 Q-Chem 5.4.0 for Intel X86 EM64T Linux

User input:
--------------------------------------------------------------
$molecule
0 1
C	0.713264	-3.887800	0.126876
C	-0.651267	-3.701456	-0.113784
C	-1.068787	-2.345170	-0.188043
H	-1.346782	-4.545233	-0.236019
C	0.000000	-1.450135	0.000000
S	1.504247	-2.321334	0.265612
C	-2.493059	-1.934439	-0.439357
H	-3.147809	-2.819799	-0.554378
H	-2.589987	-1.326210	-1.362899
H	-2.899892	-1.325374	0.394786
H	1.287774	-4.815326	0.228603
C	0.000000	0.000000	0.000000
C	0.354153	0.766774	1.113020
C	0.937751	2.029404	0.820578
H	0.191350	0.414475	2.142881
C	1.042030	2.254581	-0.563588
S	0.406851	0.881228	-1.464748
C	1.384426	2.995779	1.882380
H	1.196413	2.589194	2.894974
H	0.849641	3.965707	1.808137
H	2.469756	3.216753	1.808230
H	1.443919	3.124243	-1.097114
$end

$rem
JOBTYPE		SP
EXCHANGE	HF
CORRELATION	pRIMP2
BASIS		cc-pvtz
METHOD		rimp2
AUX_BASIS	rimp2-cc-pvtz
SOLVENT_METHOD	PCM
PURECART	11111
SYMMETRY	false
MEM_TOTAL	110000
SCF_CONVERGENCE = 6
THRESH=10
GUI = 2
$end

$solvent
dielectric 4.90
$end
--------------------------------------------------------------

             Standard Nuclear Orientation (Angstroms)
    I     Atom           X                Y                Z
 ----------------------------------------------------------------
    1      C       0.7132640000    -3.8878000000     0.1268760000
    2      C      -0.6512670000    -3.7014560000    -0.1137840000
    3      C      -1.0687870000    -2.3451700000    -0.1880430000
    4      H      -1.3467820000    -4.5452330000    -0.2360190000
    5      C       0.0000000000    -1.4501350000     0.0000000000
    6      S       1.5042470000    -2.3213340000     0.2656120000
    7      C      -2.4930590000    -1.9344390000    -0.4393570000
    8      H      -3.1478090000    -2.8197990000    -0.5543780000
    9      H      -2.5899870000    -1.3262100000    -1.3628990000
   10      H      -2.8998920000    -1.3253740000     0.3947860000
   11      H       1.2877740000    -4.8153260000     0.2286030000
   12      C       0.0000000000     0.0000000000     0.0000000000
   13      C       0.3541530000     0.7667740000     1.1130200000
   14      C       0.9377510000     2.0294040000     0.8205780000
   15      H       0.1913500000     0.4144750000     2.1428810000
   16      C       1.0420300000     2.2545810000    -0.5635880000
   17      S       0.4068510000     0.8812280000    -1.4647480000
   18      C       1.3844260000     2.9957790000     1.8823800000
   19      H       1.1964130000     2.5891940000     2.8949740000
   20      H       0.8496410000     3.9657070000     1.8081370000
   21      H       2.4697560000     3.2167530000     1.8082300000
   22      H       1.4439190000     3.1242430000    -1.0971140000
 ----------------------------------------------------------------

   10   -1179.6751810075      5.07e-07  Convergence criterion met
 Total energy in the final basis set =    -1179.6751810075
        RIMP2         total energy =     -1181.6551017933 a.u.

                    Orbital Energies (a.u.)
 --------------------------------------------------------------

 Alpha MOs
 -- Occupied --
-91.9845 -91.9841 -11.2741 -11.2718 -11.2716 -11.2689 -11.2512 -11.2506
-11.2448 -11.2408 -11.2292 -11.2286  -8.9841  -8.9837  -6.6650  -6.6645
 -6.6644  -6.6640  -6.6638  -6.6634  -1.1787  -1.1490  -1.0396  -1.0219
 -0.9970  -0.9527  -0.9130  -0.8920  -0.7987  -0.7540  -0.7299  -0.6927
 -0.6611  -0.6170  -0.5825  -0.5793  -0.5706  -0.5691  -0.5508  -0.5320
 -0.5281  -0.5184  -0.5077  -0.4923  -0.4829  -0.4643  -0.4628  -0.3485
 -0.3356  -0.3198  -0.3034

          Ground-State Mulliken Net Atomic Charges

     Atom                 Charge (a.u.)
  ----------------------------------------
      1 C                    -0.205942
      2 C                    -0.254193
      3 C                     0.058577
      4 H                     0.183672
      5 C                    -0.060421
      6 S                     0.027023
      7 C                    -0.285067
      8 H                     0.106659
      9 H                     0.109930
     10 H                     0.110157
     11 H                     0.203930
     12 C                    -0.003399
     13 C                    -0.254561
     14 C                     0.038268
     15 H                     0.184984
     16 C                    -0.234501
     17 S                     0.026505
     18 C                    -0.269114
     19 H                     0.102970
     20 H                     0.107723
     21 H                     0.108058
     22 H                     0.198743
  ----------------------------------------
  Sum of atomic charges =     0.000000

                    Cartesian Multipole Moments
 -----------------------------------------------------------------
    Charge (ESU x 10^10)
                -0.0000
    Dipole Moment (Debye)
         X      -0.5828      Y       0.3572      Z       1.2489
       Tot       1.4238
    Quadrupole Moments (Debye-Ang)
        XX     -84.3979     XY       6.4679     YY     -70.9090
        XZ       1.6055     YZ       1.3921     ZZ     -86.4217

 Total job time:  53.11s(wall), 1828.87s(cpu)
        *  Thank you very much for using Q-Chem.  Have a nice day.  *
