 Q-Chem 5.4, Q-Chem, Inc., Pleasanton, CA (2021)
 Q-Chem 5.4.0 for Intel X86 EM64T Linux

User input:
--------------------------------------------------------------
$molecule
0 1
C	-0.361285	-3.887800	-0.627947
C	0.331462	-3.701456	0.572038
C	0.542953	-2.345170	0.939610
H	0.684893	-4.545233	1.183405
C	-0.000000	-1.450135	-0.000000
S	-0.763441	-2.321334	-1.323052
C	1.265941	-1.934439	2.192207
H	1.598695	-2.819799	2.767709
H	0.620770	-1.326210	2.860100
H	2.166438	-1.325374	1.967682
H	-0.652645	-4.815326	-1.133436
C	0.000000	0.000000	0.000000
C	0.215623	0.816623	1.113020
C	0.571102	2.161411	0.820578
H	0.116470	0.441406	2.142881
C	0.634696	2.401276	-0.563588
S	0.247646	0.938489	-1.464748
C	0.843182	3.190669	1.882380
H	0.728628	2.757614	2.894974
H	0.148095	4.052998	1.808137
H	1.873652	3.596752	1.808230
H	0.879464	3.327513	-1.097114
$end

$rem
JOBTYPE		SP
EXCHANGE	HF
CORRELATION	pRIMP2
BASIS		cc-pvtz
METHOD		rimp2
AUX_BASIS	rimp2-cc-pvtz
SOLVENT_METHOD	PCM
PURECART	11111
SYMMETRY	false
MEM_TOTAL	110000
SCF_CONVERGENCE = 6
THRESH=10
GUI = 2
$end

$solvent
dielectric 4.90
$end
--------------------------------------------------------------

             Standard Nuclear Orientation (Angstroms)
    I     Atom           X                Y                Z
 ----------------------------------------------------------------
    1      C      -0.3612850000    -3.8878000000    -0.6279470000
    2      C       0.3314620000    -3.7014560000     0.5720380000
    3      C       0.5429530000    -2.3451700000     0.9396100000
    4      H       0.6848930000    -4.5452330000     1.1834050000
    5      C       0.0000000000    -1.4501350000     0.0000000000
    6      S      -0.7634410000    -2.3213340000    -1.3230520000
    7      C       1.2659410000    -1.9344390000     2.1922070000
    8      H       1.5986950000    -2.8197990000     2.7677090000
    9      H       0.6207700000    -1.3262100000     2.8601000000
   10      H       2.1664380000    -1.3253740000     1.9676820000
   11      H      -0.6526450000    -4.8153260000    -1.1334360000
   12      C       0.0000000000     0.0000000000     0.0000000000
   13      C       0.2156230000     0.8166230000     1.1130200000
   14      C       0.5711020000     2.1614110000     0.8205780000
   15      H       0.1164700000     0.4414060000     2.1428810000
   16      C       0.6346960000     2.4012760000    -0.5635880000
   17      S       0.2476460000     0.9384890000    -1.4647480000
   18      C       0.8431820000     3.1906690000     1.8823800000
   19      H       0.7286280000     2.7576140000     2.8949740000
   20      H       0.1480950000     4.0529980000     1.8081370000
   21      H       1.8736520000     3.5967520000     1.8082300000
   22      H       0.8794640000     3.3275130000    -1.0971140000
 ----------------------------------------------------------------

   10   -1179.6812474645      5.11e-07  Convergence criterion met
 Total energy in the final basis set =    -1179.6812474645
        RIMP2         total energy =     -1181.6619641032 a.u.

                    Orbital Energies (a.u.)
 --------------------------------------------------------------

 Alpha MOs
 -- Occupied --
-91.9857 -91.9850 -11.2813 -11.2780 -11.2728 -11.2655 -11.2535 -11.2522
-11.2437 -11.2404 -11.2303 -11.2296  -8.9853  -8.9848  -6.6662  -6.6657
 -6.6657  -6.6652  -6.6651  -6.6646  -1.1805  -1.1501  -1.0408  -1.0262
 -0.9958  -0.9554  -0.9142  -0.8943  -0.8011  -0.7552  -0.7285  -0.7001
 -0.6613  -0.6153  -0.5901  -0.5814  -0.5705  -0.5626  -0.5509  -0.5386
 -0.5293  -0.5224  -0.5050  -0.4926  -0.4860  -0.4727  -0.4552  -0.3616
 -0.3448  -0.3394  -0.2743

          Ground-State Mulliken Net Atomic Charges

     Atom                 Charge (a.u.)
  ----------------------------------------
      1 C                    -0.212477
      2 C                    -0.249724
      3 C                     0.063643
      4 H                     0.185229
      5 C                    -0.038191
      6 S                     0.015364
      7 C                    -0.303556
      8 H                     0.115557
      9 H                     0.105077
     10 H                     0.118393
     11 H                     0.205817
     12 C                     0.019039
     13 C                    -0.280112
     14 C                     0.045187
     15 H                     0.193689
     16 C                    -0.253292
     17 S                     0.022394
     18 C                    -0.270413
     19 H                     0.101992
     20 H                     0.108791
     21 H                     0.108827
     22 H                     0.198764
  ----------------------------------------
  Sum of atomic charges =     0.000000

                    Cartesian Multipole Moments
 -----------------------------------------------------------------
    Charge (ESU x 10^10)
                -0.0000
    Dipole Moment (Debye)
         X       1.2621      Y       0.1959      Z       2.8183
       Tot       3.0942
    Quadrupole Moments (Debye-Ang)
        XX     -90.3610     XY       1.6234     YY     -69.2213
        XZ       3.1904     YZ      -0.8538     ZZ     -81.7980

 Total job time:  50.08s(wall), 1706.30s(cpu)
        *  Thank you very much for using Q-Chem.  Have a nice day.  *
