 Q-Chem 5.4, Q-Chem, Inc., Pleasanton, CA (2021)
 Q-Chem 5.4.0 for Intel X86 EM64T Linux

User input:
--------------------------------------------------------------
$molecule
0 1
C	-0.555670	-3.887800	0.464838
C	0.505790	-3.701456	-0.425760
C	0.831053	-2.345170	-0.697866
H	1.046496	-4.545233	-0.879984
C	0.000000	-1.450135	0.000000
S	-1.170382	-2.321334	0.981588
C	1.939074	-1.934439	-1.627381
H	2.448051	-2.819799	-2.055015
H	2.708853	-1.326210	-1.107991
H	1.561590	-1.325374	-2.475210
H	-1.002886	-4.815326	0.839549
C	0.000000	0.000000	0.000000
C	0.143630	0.832309	1.113020
C	0.380550	2.202961	0.820578
H	0.077556	0.449877	2.142881
C	0.422995	2.447456	-0.563588
S	0.164909	0.956502	-1.464748
C	0.561888	3.252016	1.882380
H	0.485513	2.810624	2.894974
H	-0.205711	4.050482	1.808137
H	1.553045	3.746365	1.808230
H	0.586105	3.391501	-1.097114
$end

$rem
JOBTYPE		SP
EXCHANGE	HF
CORRELATION	pRIMP2
BASIS		cc-pvtz
METHOD		rimp2
AUX_BASIS	rimp2-cc-pvtz
SOLVENT_METHOD	PCM
PURECART	11111
SYMMETRY	false
MEM_TOTAL	110000
SCF_CONVERGENCE = 6
THRESH=10
GUI = 2
$end

$solvent
dielectric 4.90
$end
--------------------------------------------------------------

             Standard Nuclear Orientation (Angstroms)
    I     Atom           X                Y                Z
 ----------------------------------------------------------------
    1      C      -0.5556700000    -3.8878000000     0.4648380000
    2      C       0.5057900000    -3.7014560000    -0.4257600000
    3      C       0.8310530000    -2.3451700000    -0.6978660000
    4      H       1.0464960000    -4.5452330000    -0.8799840000
    5      C       0.0000000000    -1.4501350000     0.0000000000
    6      S      -1.1703820000    -2.3213340000     0.9815880000
    7      C       1.9390740000    -1.9344390000    -1.6273810000
    8      H       2.4480510000    -2.8197990000    -2.0550150000
    9      H       2.7088530000    -1.3262100000    -1.1079910000
   10      H       1.5615900000    -1.3253740000    -2.4752100000
   11      H      -1.0028860000    -4.8153260000     0.8395490000
   12      C       0.0000000000     0.0000000000     0.0000000000
   13      C       0.1436300000     0.8323090000     1.1130200000
   14      C       0.3805500000     2.2029610000     0.8205780000
   15      H       0.0775560000     0.4498770000     2.1428810000
   16      C       0.4229950000     2.4474560000    -0.5635880000
   17      S       0.1649090000     0.9565020000    -1.4647480000
   18      C       0.5618880000     3.2520160000     1.8823800000
   19      H       0.4855130000     2.8106240000     2.8949740000
   20      H      -0.2057110000     4.0504820000     1.8081370000
   21      H       1.5530450000     3.7463650000     1.8082300000
   22      H       0.5861050000     3.3915010000    -1.0971140000
 ----------------------------------------------------------------

   10   -1179.6840404713      5.05e-07  Convergence criterion met
 Total energy in the final basis set =    -1179.6840404713
        RIMP2         total energy =     -1181.6633789445 a.u.

                    Orbital Energies (a.u.)
 --------------------------------------------------------------

 Alpha MOs
 -- Occupied --
-91.9856 -91.9853 -11.2810 -11.2762 -11.2718 -11.2652 -11.2522 -11.2514
-11.2427 -11.2418 -11.2291 -11.2280  -8.9852  -8.9849  -6.6661  -6.6658
 -6.6656  -6.6653  -6.6649  -6.6647  -1.1791  -1.1497  -1.0402  -1.0227
 -0.9980  -0.9533  -0.9135  -0.8933  -0.7992  -0.7597  -0.7245  -0.6949
 -0.6619  -0.6164  -0.5826  -0.5778  -0.5749  -0.5697  -0.5516  -0.5323
 -0.5268  -0.5192  -0.5094  -0.4949  -0.4870  -0.4668  -0.4577  -0.3529
 -0.3426  -0.3365  -0.2825

          Ground-State Mulliken Net Atomic Charges

     Atom                 Charge (a.u.)
  ----------------------------------------
      1 C                    -0.216129
      2 C                    -0.249820
      3 C                     0.037533
      4 H                     0.185439
      5 C                    -0.028962
      6 S                     0.023470
      7 C                    -0.295278
      8 H                     0.109955
      9 H                     0.116064
     10 H                     0.112681
     11 H                     0.204457
     12 C                    -0.001922
     13 C                    -0.233810
     14 C                     0.017754
     15 H                     0.186893
     16 C                    -0.236751
     17 S                     0.021157
     18 C                    -0.270692
     19 H                     0.102984
     20 H                     0.108285
     21 H                     0.108000
     22 H                     0.198693
  ----------------------------------------
  Sum of atomic charges =     0.000000

                    Cartesian Multipole Moments
 -----------------------------------------------------------------
    Charge (ESU x 10^10)
                -0.0000
    Dipole Moment (Debye)
         X       1.4993      Y       0.2944      Z       0.4514
       Tot       1.5932
    Quadrupole Moments (Debye-Ang)
        XX     -88.6058     XY       0.1662     YY     -69.3358
        XZ      -3.1179     YZ       2.5427     ZZ     -83.8771

 Total job time:  83.17s(wall), 1939.66s(cpu)
        *  Thank you very much for using Q-Chem.  Have a nice day.  *
