 Q-Chem 5.4, Q-Chem, Inc., Pleasanton, CA (2021)
 Q-Chem 5.4.0 for Intel X86 EM64T Linux

User input:
--------------------------------------------------------------
$molecule
0 1
C	0.361285	-3.887800	0.627947
C	-0.331462	-3.701456	-0.572038
C	-0.542953	-2.345170	-0.939610
H	-0.684893	-4.545233	-1.183405
C	-0.000000	-1.450135	-0.000000
S	0.763441	-2.321334	1.323052
C	-1.265941	-1.934439	-2.192207
H	-1.598695	-2.819799	-2.767709
H	-0.620770	-1.326210	-2.860100
H	-2.166438	-1.325374	-1.967682
H	0.652645	-4.815326	1.133436
C	0.000000	0.000000	0.000000
C	0.540541	0.648986	1.113020
C	1.431046	1.717546	0.820578
H	0.292104	0.350827	2.142881
C	1.590053	1.908061	-0.563588
S	0.621066	0.745901	-1.464748
C	2.112618	2.535384	1.882380
H	1.825779	2.191315	2.894974
H	1.847090	3.610676	1.808137
H	3.218159	2.467925	1.808230
H	2.203332	2.644073	-1.097114
$end

$rem
JOBTYPE		SP
EXCHANGE	HF
CORRELATION	pRIMP2
BASIS		cc-pvtz
METHOD		rimp2
AUX_BASIS	rimp2-cc-pvtz
SOLVENT_METHOD	PCM
PURECART	11111
SYMMETRY	false
MEM_TOTAL	110000
SCF_CONVERGENCE = 6
THRESH=10
GUI = 2
$end

$solvent
dielectric 4.90
$end
--------------------------------------------------------------

             Standard Nuclear Orientation (Angstroms)
    I     Atom           X                Y                Z
 ----------------------------------------------------------------
    1      C       0.3612850000    -3.8878000000     0.6279470000
    2      C      -0.3314620000    -3.7014560000    -0.5720380000
    3      C      -0.5429530000    -2.3451700000    -0.9396100000
    4      H      -0.6848930000    -4.5452330000    -1.1834050000
    5      C       0.0000000000    -1.4501350000     0.0000000000
    6      S       0.7634410000    -2.3213340000     1.3230520000
    7      C      -1.2659410000    -1.9344390000    -2.1922070000
    8      H      -1.5986950000    -2.8197990000    -2.7677090000
    9      H      -0.6207700000    -1.3262100000    -2.8601000000
   10      H      -2.1664380000    -1.3253740000    -1.9676820000
   11      H       0.6526450000    -4.8153260000     1.1334360000
   12      C       0.0000000000     0.0000000000     0.0000000000
   13      C       0.5405410000     0.6489860000     1.1130200000
   14      C       1.4310460000     1.7175460000     0.8205780000
   15      H       0.2921040000     0.3508270000     2.1428810000
   16      C       1.5900530000     1.9080610000    -0.5635880000
   17      S       0.6210660000     0.7459010000    -1.4647480000
   18      C       2.1126180000     2.5353840000     1.8823800000
   19      H       1.8257790000     2.1913150000     2.8949740000
   20      H       1.8470900000     3.6106760000     1.8081370000
   21      H       3.2181590000     2.4679250000     1.8082300000
   22      H       2.2033320000     2.6440730000    -1.0971140000
 ----------------------------------------------------------------

   10   -1179.6574792480      5.77e-07  Convergence criterion met
 Total energy in the final basis set =    -1179.6574792480
        RIMP2         total energy =     -1181.6444087774 a.u.

                    Orbital Energies (a.u.)
 --------------------------------------------------------------

 Alpha MOs
 -- Occupied --
-91.9851 -91.9825 -11.2760 -11.2759 -11.2721 -11.2659 -11.2542 -11.2499
-11.2440 -11.2404 -11.2304 -11.2281  -8.9852  -8.9823  -6.6660  -6.6654
 -6.6648  -6.6632  -6.6626  -6.6620  -1.1840  -1.1484  -1.0429  -1.0222
 -1.0000  -0.9503  -0.9144  -0.8932  -0.7975  -0.7635  -0.7241  -0.6918
 -0.6597  -0.6182  -0.5842  -0.5803  -0.5768  -0.5701  -0.5509  -0.5341
 -0.5263  -0.5176  -0.5087  -0.4961  -0.4789  -0.4679  -0.4538  -0.3586
 -0.3448  -0.3393  -0.2710

          Ground-State Mulliken Net Atomic Charges

     Atom                 Charge (a.u.)
  ----------------------------------------
      1 C                    -0.231178
      2 C                    -0.243821
      3 C                     0.023608
      4 H                     0.183741
      5 C                    -0.003463
      6 S                     0.012031
      7 C                    -0.307041
      8 H                     0.111666
      9 H                     0.110241
     10 H                     0.114061
     11 H                     0.203171
     12 C                    -0.012030
     13 C                    -0.268467
     14 C                     0.046250
     15 H                     0.190431
     16 C                    -0.227922
     17 S                     0.044143
     18 C                    -0.266436
     19 H                     0.103616
     20 H                     0.108654
     21 H                     0.108720
     22 H                     0.200026
  ----------------------------------------
  Sum of atomic charges =     0.000000

                    Cartesian Multipole Moments
 -----------------------------------------------------------------
    Charge (ESU x 10^10)
                -0.0000
    Dipole Moment (Debye)
         X       0.8584      Y       0.7387      Z       0.2471
       Tot       1.1592
    Quadrupole Moments (Debye-Ang)
        XX     -86.2057     XY       7.1075     YY     -74.5500
        XZ       3.4219     YZ       2.9400     ZZ     -81.5263

 Total job time:  53.74s(wall), 1873.97s(cpu)
        *  Thank you very much for using Q-Chem.  Have a nice day.  *
