 Q-Chem 5.4, Q-Chem, Inc., Pleasanton, CA (2021)
 Q-Chem 5.4.0 for Intel X86 EM64T Linux

User input:
--------------------------------------------------------------
$molecule
0 1
C	-0.681143	-3.887800	0.246754
C	0.620906	-3.701456	-0.227093
C	1.019618	-2.345170	-0.371543
H	1.284357	-4.545233	-0.468992
C	0.000000	-1.450135	0.000000
S	-1.435522	-2.321334	0.522097
C	2.378731	-1.934439	-0.866035
H	3.003272	-2.819799	-1.093799
H	2.924444	-1.326210	-0.114688
H	2.313987	-1.325374	-1.791841
H	-1.229547	-4.815326	0.445911
C	0.000000	0.000000	0.000000
C	0.419634	0.732990	1.113020
C	1.111057	1.939951	0.820578
H	0.226746	0.396221	2.142881
C	1.234565	2.155183	-0.563588
S	0.482106	0.842416	-1.464748
C	1.640257	2.863718	1.882380
H	1.417524	2.475067	2.894974
H	1.192042	3.876565	1.808137
H	2.740717	2.989259	1.808230
H	1.710720	2.986508	-1.097114
$end

$rem
JOBTYPE		SP
EXCHANGE	HF
CORRELATION	pRIMP2
BASIS		cc-pvtz
METHOD		rimp2
AUX_BASIS	rimp2-cc-pvtz
SOLVENT_METHOD	PCM
PURECART	11111
SYMMETRY	false
MEM_TOTAL	110000
SCF_CONVERGENCE = 6
THRESH=10
GUI = 2
$end

$solvent
dielectric 4.90
$end
--------------------------------------------------------------

             Standard Nuclear Orientation (Angstroms)
    I     Atom           X                Y                Z
 ----------------------------------------------------------------
    1      C      -0.6811430000    -3.8878000000     0.2467540000
    2      C       0.6209060000    -3.7014560000    -0.2270930000
    3      C       1.0196180000    -2.3451700000    -0.3715430000
    4      H       1.2843570000    -4.5452330000    -0.4689920000
    5      C       0.0000000000    -1.4501350000     0.0000000000
    6      S      -1.4355220000    -2.3213340000     0.5220970000
    7      C       2.3787310000    -1.9344390000    -0.8660350000
    8      H       3.0032720000    -2.8197990000    -1.0937990000
    9      H       2.9244440000    -1.3262100000    -0.1146880000
   10      H       2.3139870000    -1.3253740000    -1.7918410000
   11      H      -1.2295470000    -4.8153260000     0.4459110000
   12      C       0.0000000000     0.0000000000     0.0000000000
   13      C       0.4196340000     0.7329900000     1.1130200000
   14      C       1.1110570000     1.9399510000     0.8205780000
   15      H       0.2267460000     0.3962210000     2.1428810000
   16      C       1.2345650000     2.1551830000    -0.5635880000
   17      S       0.4821060000     0.8424160000    -1.4647480000
   18      C       1.6402570000     2.8637180000     1.8823800000
   19      H       1.4175240000     2.4750670000     2.8949740000
   20      H       1.1920420000     3.8765650000     1.8081370000
   21      H       2.7407170000     2.9892590000     1.8082300000
   22      H       1.7107200000     2.9865080000    -1.0971140000
 ----------------------------------------------------------------

   10   -1179.6679846764      5.85e-07  Convergence criterion met
 Total energy in the final basis set =    -1179.6679846764
        RIMP2         total energy =     -1181.6518792210 a.u.

                    Orbital Energies (a.u.)
 --------------------------------------------------------------

 Alpha MOs
 -- Occupied --
-91.9848 -91.9820 -11.2748 -11.2730 -11.2714 -11.2685 -11.2521 -11.2491
-11.2479 -11.2409 -11.2299 -11.2260  -8.9845  -8.9817  -6.6653  -6.6647
 -6.6642  -6.6626  -6.6620  -6.6615  -1.1800  -1.1487  -1.0409  -1.0198
 -0.9978  -0.9536  -0.9123  -0.8921  -0.7972  -0.7555  -0.7297  -0.6950
 -0.6595  -0.6172  -0.5813  -0.5795  -0.5731  -0.5694  -0.5504  -0.5314
 -0.5276  -0.5198  -0.5111  -0.4920  -0.4785  -0.4649  -0.4578  -0.3481
 -0.3408  -0.3257  -0.2931

          Ground-State Mulliken Net Atomic Charges

     Atom                 Charge (a.u.)
  ----------------------------------------
      1 C                    -0.216578
      2 C                    -0.253111
      3 C                     0.059851
      4 H                     0.184647
      5 C                    -0.026267
      6 S                     0.018486
      7 C                    -0.289928
      8 H                     0.109753
      9 H                     0.112107
     10 H                     0.113704
     11 H                     0.202610
     12 C                    -0.063780
     13 C                    -0.207965
     14 C                     0.018025
     15 H                     0.186123
     16 C                    -0.222144
     17 S                     0.025933
     18 C                    -0.268996
     19 H                     0.103220
     20 H                     0.108108
     21 H                     0.107200
     22 H                     0.199001
  ----------------------------------------
  Sum of atomic charges =     0.000000

                    Cartesian Multipole Moments
 -----------------------------------------------------------------
    Charge (ESU x 10^10)
                -0.0000
    Dipole Moment (Debye)
         X       2.5692      Y       0.6295      Z       0.9787
       Tot       2.8204
    Quadrupole Moments (Debye-Ang)
        XX     -84.4316     XY       2.7999     YY     -72.5808
        XZ      -1.6078     YZ       1.7836     ZZ     -85.6734

 Total job time:  48.50s(wall), 1743.07s(cpu)
        *  Thank you very much for using Q-Chem.  Have a nice day.  *
