 Q-Chem 5.4, Q-Chem, Inc., Pleasanton, CA (2021)
 Q-Chem 5.4.0 for Intel X86 EM64T Linux

User input:
--------------------------------------------------------------
$molecule
0 1
C	0.363176	-3.887800	-0.626855
C	-0.329669	-3.701456	0.573074
C	-0.542250	-2.345170	0.940016
H	-0.682412	-4.545233	1.184837
C	0.000000	-1.450135	0.000000
S	0.764076	-2.321334	-1.322686
C	-1.265537	-1.934439	2.192440
H	-1.597559	-2.819799	2.768365
H	-2.166534	-1.326210	1.967653
H	-0.620843	-1.325374	2.860032
H	0.655262	-4.815326	-1.131925
C	0.000000	0.000000	0.000000
C	0.143630	0.832309	1.113020
C	0.380550	2.202961	0.820578
H	0.077556	0.449877	2.142881
C	0.422995	2.447456	-0.563588
S	0.164909	0.956502	-1.464748
C	0.561888	3.252016	1.882380
H	0.485513	2.810624	2.894974
H	-0.205711	4.050482	1.808137
H	1.553045	3.746365	1.808230
H	0.586105	3.391501	-1.097114
$end

$rem
JOBTYPE		SP
EXCHANGE	HF
CORRELATION	pRIMP2
BASIS		cc-pvtz
METHOD		rimp2
AUX_BASIS	rimp2-cc-pvtz
SOLVENT_METHOD	PCM
PURECART	11111
SYMMETRY	false
MEM_TOTAL	110000
SCF_CONVERGENCE = 6
THRESH=10
GUI = 2
$end

$solvent
dielectric 4.90
$end
--------------------------------------------------------------

             Standard Nuclear Orientation (Angstroms)
    I     Atom           X                Y                Z
 ----------------------------------------------------------------
    1      C       0.3631760000    -3.8878000000    -0.6268550000
    2      C      -0.3296690000    -3.7014560000     0.5730740000
    3      C      -0.5422500000    -2.3451700000     0.9400160000
    4      H      -0.6824120000    -4.5452330000     1.1848370000
    5      C       0.0000000000    -1.4501350000     0.0000000000
    6      S       0.7640760000    -2.3213340000    -1.3226860000
    7      C      -1.2655370000    -1.9344390000     2.1924400000
    8      H      -1.5975590000    -2.8197990000     2.7683650000
    9      H      -2.1665340000    -1.3262100000     1.9676530000
   10      H      -0.6208430000    -1.3253740000     2.8600320000
   11      H       0.6552620000    -4.8153260000    -1.1319250000
   12      C       0.0000000000     0.0000000000     0.0000000000
   13      C       0.1436300000     0.8323090000     1.1130200000
   14      C       0.3805500000     2.2029610000     0.8205780000
   15      H       0.0775560000     0.4498770000     2.1428810000
   16      C       0.4229950000     2.4474560000    -0.5635880000
   17      S       0.1649090000     0.9565020000    -1.4647480000
   18      C       0.5618880000     3.2520160000     1.8823800000
   19      H       0.4855130000     2.8106240000     2.8949740000
   20      H      -0.2057110000     4.0504820000     1.8081370000
   21      H       1.5530450000     3.7463650000     1.8082300000
   22      H       0.5861050000     3.3915010000    -1.0971140000
 ----------------------------------------------------------------

   10   -1179.6843347067      5.08e-07  Convergence criterion met
 Total energy in the final basis set =    -1179.6843347067
        RIMP2         total energy =     -1181.6639877117 a.u.

                    Orbital Energies (a.u.)
 --------------------------------------------------------------

 Alpha MOs
 -- Occupied --
-91.9866 -91.9862 -11.2832 -11.2784 -11.2719 -11.2649 -11.2525 -11.2524
-11.2437 -11.2407 -11.2305 -11.2296  -8.9862  -8.9859  -6.6671  -6.6668
 -6.6666  -6.6663  -6.6660  -6.6656  -1.1805  -1.1503  -1.0410  -1.0260
 -0.9960  -0.9561  -0.9136  -0.8945  -0.8021  -0.7549  -0.7286  -0.6993
 -0.6618  -0.6153  -0.5894  -0.5815  -0.5702  -0.5633  -0.5516  -0.5383
 -0.5302  -0.5218  -0.5050  -0.4914  -0.4887  -0.4747  -0.4548  -0.3638
 -0.3446  -0.3389  -0.2738

          Ground-State Mulliken Net Atomic Charges

     Atom                 Charge (a.u.)
  ----------------------------------------
      1 C                    -0.215464
      2 C                    -0.250697
      3 C                     0.053974
      4 H                     0.185160
      5 C                    -0.042637
      6 S                     0.013775
      7 C                    -0.303951
      8 H                     0.113699
      9 H                     0.116775
     10 H                     0.105671
     11 H                     0.205615
     12 C                     0.015970
     13 C                    -0.221060
     14 C                     0.013875
     15 H                     0.193144
     16 C                    -0.239146
     17 S                     0.008361
     18 C                    -0.272186
     19 H                     0.101724
     20 H                     0.108565
     21 H                     0.109028
     22 H                     0.199803
  ----------------------------------------
  Sum of atomic charges =     0.000000

                    Cartesian Multipole Moments
 -----------------------------------------------------------------
    Charge (ESU x 10^10)
                -0.0000
    Dipole Moment (Debye)
         X      -0.4225      Y       0.2499      Z       2.7590
       Tot       2.8023
    Quadrupole Moments (Debye-Ang)
        XX     -90.7907     XY       2.9604     YY     -68.8933
        XZ      -2.6742     YZ      -0.8325     ZZ     -81.7483

 Total job time:  57.97s(wall), 1793.43s(cpu)
        *  Thank you very much for using Q-Chem.  Have a nice day.  *
