 Q-Chem 5.4, Q-Chem, Inc., Pleasanton, CA (2021)
 Q-Chem 5.4.0 for Intel X86 EM64T Linux

User input:
--------------------------------------------------------------
$molecule
0 1
C	0.680396	-3.887800	0.248806
C	-0.621614	-3.701456	-0.225147
C	-1.019896	-2.345170	-0.370780
H	-1.285337	-4.545233	-0.466300
C	0.000000	-1.450135	0.000000
S	1.435271	-2.321334	0.522786
C	-2.378891	-1.934439	-0.865597
H	-3.003720	-2.819799	-1.092567
H	-2.313975	-1.326210	-1.791940
H	-2.924390	-1.325374	-0.114772
H	1.228514	-4.815326	0.448750
C	0.000000	0.000000	0.000000
C	-0.003081	0.844605	1.113020
C	-0.007772	2.235575	0.820578
H	-0.001743	0.456510	2.142881
C	-0.008427	2.483726	-0.563588
S	-0.003691	0.970607	-1.464748
C	-0.011355	3.300181	1.882380
H	-0.009922	2.852233	2.894974
H	-0.905944	3.953225	1.808137
H	0.878901	3.959133	1.808230
H	-0.011727	3.441752	-1.097114
$end

$rem
JOBTYPE		SP
EXCHANGE	HF
CORRELATION	pRIMP2
BASIS		cc-pvtz
METHOD		rimp2
AUX_BASIS	rimp2-cc-pvtz
SOLVENT_METHOD	PCM
PURECART	11111
SYMMETRY	false
MEM_TOTAL	110000
SCF_CONVERGENCE = 6
THRESH=10
GUI = 2
$end

$solvent
dielectric 4.90
$end
--------------------------------------------------------------

             Standard Nuclear Orientation (Angstroms)
    I     Atom           X                Y                Z
 ----------------------------------------------------------------
    1      C       0.6803960000    -3.8878000000     0.2488060000
    2      C      -0.6216140000    -3.7014560000    -0.2251470000
    3      C      -1.0198960000    -2.3451700000    -0.3707800000
    4      H      -1.2853370000    -4.5452330000    -0.4663000000
    5      C       0.0000000000    -1.4501350000     0.0000000000
    6      S       1.4352710000    -2.3213340000     0.5227860000
    7      C      -2.3788910000    -1.9344390000    -0.8655970000
    8      H      -3.0037200000    -2.8197990000    -1.0925670000
    9      H      -2.3139750000    -1.3262100000    -1.7919400000
   10      H      -2.9243900000    -1.3253740000    -0.1147720000
   11      H       1.2285140000    -4.8153260000     0.4487500000
   12      C       0.0000000000     0.0000000000     0.0000000000
   13      C      -0.0030810000     0.8446050000     1.1130200000
   14      C      -0.0077720000     2.2355750000     0.8205780000
   15      H      -0.0017430000     0.4565100000     2.1428810000
   16      C      -0.0084270000     2.4837260000    -0.5635880000
   17      S      -0.0036910000     0.9706070000    -1.4647480000
   18      C      -0.0113550000     3.3001810000     1.8823800000
   19      H      -0.0099220000     2.8522330000     2.8949740000
   20      H      -0.9059440000     3.9532250000     1.8081370000
   21      H       0.8789010000     3.9591330000     1.8082300000
   22      H      -0.0117270000     3.4417520000    -1.0971140000
 ----------------------------------------------------------------

   10   -1179.6864241450      5.07e-07  Convergence criterion met
 Total energy in the final basis set =    -1179.6864241450
        RIMP2         total energy =     -1181.6640726705 a.u.

                    Orbital Energies (a.u.)
 --------------------------------------------------------------

 Alpha MOs
 -- Occupied --
-91.9858 -91.9856 -11.2798 -11.2740 -11.2727 -11.2649 -11.2534 -11.2510
-11.2424 -11.2416 -11.2290 -11.2289  -8.9853  -8.9850  -6.6662  -6.6659
 -6.6656  -6.6654  -6.6650  -6.6648  -1.1780  -1.1497  -1.0393  -1.0227
 -0.9974  -0.9535  -0.9137  -0.8925  -0.7997  -0.7564  -0.7273  -0.6944
 -0.6622  -0.6166  -0.5824  -0.5786  -0.5722  -0.5694  -0.5516  -0.5318
 -0.5277  -0.5193  -0.5075  -0.4934  -0.4888  -0.4657  -0.4612  -0.3446
 -0.3415  -0.3287  -0.2965

          Ground-State Mulliken Net Atomic Charges

     Atom                 Charge (a.u.)
  ----------------------------------------
      1 C                    -0.213756
      2 C                    -0.248790
      3 C                     0.038480
      4 H                     0.185357
      5 C                    -0.039276
      6 S                     0.026129
      7 C                    -0.283340
      8 H                     0.108168
      9 H                     0.109994
     10 H                     0.111221
     11 H                     0.204246
     12 C                    -0.005785
     13 C                    -0.232152
     14 C                     0.018654
     15 H                     0.186835
     16 C                    -0.237853
     17 S                     0.025414
     18 C                    -0.271106
     19 H                     0.102966
     20 H                     0.107897
     21 H                     0.108331
     22 H                     0.198366
  ----------------------------------------
  Sum of atomic charges =     0.000000

                    Cartesian Multipole Moments
 -----------------------------------------------------------------
    Charge (ESU x 10^10)
                -0.0000
    Dipole Moment (Debye)
         X      -1.4261      Y       0.2397      Z       0.9383
       Tot       1.7238
    Quadrupole Moments (Debye-Ang)
        XX     -86.9117     XY       2.0575     YY     -68.7511
        XZ       2.1666     YZ       1.9105     ZZ     -85.9467

 Total job time:  81.19s(wall), 2511.88s(cpu)
        *  Thank you very much for using Q-Chem.  Have a nice day.  *
