 Q-Chem 5.4, Q-Chem, Inc., Pleasanton, CA (2021)
 Q-Chem 5.4.0 for Intel X86 EM64T Linux

User input:
--------------------------------------------------------------
$molecule
0 1
C	0.246754	-3.887800	0.681143
C	-0.227093	-3.701456	-0.620906
C	-0.371543	-2.345170	-1.019618
H	-0.468992	-4.545233	-1.284357
C	0.000000	-1.450135	0.000000
S	0.522097	-2.321334	1.435522
C	-0.866035	-1.934439	-2.378731
H	-1.093799	-2.819799	-3.003272
H	-0.114688	-1.326210	-2.924444
H	-1.791841	-1.325374	-2.313987
H	0.445911	-4.815326	1.229547
C	0.000000	0.000000	0.000000
C	-0.003081	0.844605	1.113020
C	-0.007772	2.235575	0.820578
H	-0.001743	0.456510	2.142881
C	-0.008427	2.483726	-0.563588
S	-0.003691	0.970607	-1.464748
C	-0.011355	3.300181	1.882380
H	-0.009922	2.852233	2.894974
H	-0.905944	3.953225	1.808137
H	0.878901	3.959133	1.808230
H	-0.011727	3.441752	-1.097114
$end

$rem
JOBTYPE		SP
EXCHANGE	HF
CORRELATION	pRIMP2
BASIS		cc-pvtz
METHOD		rimp2
AUX_BASIS	rimp2-cc-pvtz
SOLVENT_METHOD	PCM
PURECART	11111
SYMMETRY	false
MEM_TOTAL	110000
SCF_CONVERGENCE = 6
THRESH=10
GUI = 2
$end

$solvent
dielectric 4.90
$end
--------------------------------------------------------------

             Standard Nuclear Orientation (Angstroms)
    I     Atom           X                Y                Z
 ----------------------------------------------------------------
    1      C       0.2467540000    -3.8878000000     0.6811430000
    2      C      -0.2270930000    -3.7014560000    -0.6209060000
    3      C      -0.3715430000    -2.3451700000    -1.0196180000
    4      H      -0.4689920000    -4.5452330000    -1.2843570000
    5      C       0.0000000000    -1.4501350000     0.0000000000
    6      S       0.5220970000    -2.3213340000     1.4355220000
    7      C      -0.8660350000    -1.9344390000    -2.3787310000
    8      H      -1.0937990000    -2.8197990000    -3.0032720000
    9      H      -0.1146880000    -1.3262100000    -2.9244440000
   10      H      -1.7918410000    -1.3253740000    -2.3139870000
   11      H       0.4459110000    -4.8153260000     1.2295470000
   12      C       0.0000000000     0.0000000000     0.0000000000
   13      C      -0.0030810000     0.8446050000     1.1130200000
   14      C      -0.0077720000     2.2355750000     0.8205780000
   15      H      -0.0017430000     0.4565100000     2.1428810000
   16      C      -0.0084270000     2.4837260000    -0.5635880000
   17      S      -0.0036910000     0.9706070000    -1.4647480000
   18      C      -0.0113550000     3.3001810000     1.8823800000
   19      H      -0.0099220000     2.8522330000     2.8949740000
   20      H      -0.9059440000     3.9532250000     1.8081370000
   21      H       0.8789010000     3.9591330000     1.8082300000
   22      H      -0.0117270000     3.4417520000    -1.0971140000
 ----------------------------------------------------------------

   10   -1179.6867499926      5.41e-07  Convergence criterion met
 Total energy in the final basis set =    -1179.6867499926
        RIMP2         total energy =     -1181.6664868238 a.u.

                    Orbital Energies (a.u.)
 --------------------------------------------------------------

 Alpha MOs
 -- Occupied --
-91.9862 -91.9855 -11.2843 -11.2785 -11.2734 -11.2624 -11.2537 -11.2520
-11.2439 -11.2391 -11.2301 -11.2289  -8.9859  -8.9851  -6.6668  -6.6663
 -6.6660  -6.6657  -6.6655  -6.6648  -1.1805  -1.1502  -1.0411  -1.0253
 -0.9985  -0.9527  -0.9147  -0.8951  -0.7997  -0.7643  -0.7200  -0.6956
 -0.6632  -0.6161  -0.5839  -0.5805  -0.5772  -0.5697  -0.5526  -0.5335
 -0.5242  -0.5202  -0.5103  -0.4972  -0.4906  -0.4681  -0.4526  -0.3672
 -0.3435  -0.3401  -0.2712

          Ground-State Mulliken Net Atomic Charges

     Atom                 Charge (a.u.)
  ----------------------------------------
      1 C                    -0.211769
      2 C                    -0.253892
      3 C                     0.046888
      4 H                     0.185810
      5 C                    -0.027533
      6 S                     0.013510
      7 C                    -0.316992
      8 H                     0.115398
      9 H                     0.111822
     10 H                     0.120753
     11 H                     0.206579
     12 C                     0.052700
     13 C                    -0.266443
     14 C                     0.028974
     15 H                     0.178441
     16 C                    -0.252946
     17 S                     0.021023
     18 C                    -0.271549
     19 H                     0.103045
     20 H                     0.108294
     21 H                     0.108662
     22 H                     0.199227
  ----------------------------------------
  Sum of atomic charges =     0.000000

                    Cartesian Multipole Moments
 -----------------------------------------------------------------
    Charge (ESU x 10^10)
                -0.0000
    Dipole Moment (Debye)
         X      -0.5529      Y       0.0481      Z      -0.0569
       Tot       0.5579
    Quadrupole Moments (Debye-Ang)
        XX     -91.9927     XY       0.7779     YY     -68.5419
        XZ       2.2382     YZ       3.3500     ZZ     -80.6026

 Total job time:  55.28s(wall), 1998.84s(cpu)
        *  Thank you very much for using Q-Chem.  Have a nice day.  *
