 Q-Chem 5.4, Q-Chem, Inc., Pleasanton, CA (2021)
 Q-Chem 5.4.0 for Intel X86 EM64T Linux

User input:
--------------------------------------------------------------
$molecule
0 1
C	-0.363176	-3.887800	0.626855
C	0.329669	-3.701456	-0.573074
C	0.542250	-2.345170	-0.940016
H	0.682412	-4.545233	-1.184837
C	0.000000	-1.450135	0.000000
S	-0.764076	-2.321334	1.322686
C	1.265537	-1.934439	-2.192440
H	1.597559	-2.819799	-2.768365
H	2.166534	-1.326210	-1.967653
H	0.620843	-1.325374	-2.860032
H	-0.655262	-4.815326	1.131925
C	0.000000	0.000000	0.000000
C	0.645024	0.545262	1.113020
C	1.707554	1.442954	0.820578
H	0.348587	0.294774	2.142881
C	1.897227	1.602964	-0.563588
S	0.741155	0.626722	-1.464748
C	2.520787	2.130014	1.882380
H	2.178559	1.840981	2.894974
H	2.446016	3.235078	1.808137
H	3.597818	1.871604	1.808230
H	2.628997	2.221299	-1.097114
$end

$rem
JOBTYPE		SP
EXCHANGE	HF
CORRELATION	pRIMP2
BASIS		cc-pvtz
METHOD		rimp2
AUX_BASIS	rimp2-cc-pvtz
SOLVENT_METHOD	PCM
PURECART	11111
SYMMETRY	false
MEM_TOTAL	110000
SCF_CONVERGENCE = 6
THRESH=10
GUI = 2
$end

$solvent
dielectric 4.90
$end
--------------------------------------------------------------

             Standard Nuclear Orientation (Angstroms)
    I     Atom           X                Y                Z
 ----------------------------------------------------------------
    1      C      -0.3631760000    -3.8878000000     0.6268550000
    2      C       0.3296690000    -3.7014560000    -0.5730740000
    3      C       0.5422500000    -2.3451700000    -0.9400160000
    4      H       0.6824120000    -4.5452330000    -1.1848370000
    5      C       0.0000000000    -1.4501350000     0.0000000000
    6      S      -0.7640760000    -2.3213340000     1.3226860000
    7      C       1.2655370000    -1.9344390000    -2.1924400000
    8      H       1.5975590000    -2.8197990000    -2.7683650000
    9      H       2.1665340000    -1.3262100000    -1.9676530000
   10      H       0.6208430000    -1.3253740000    -2.8600320000
   11      H      -0.6552620000    -4.8153260000     1.1319250000
   12      C       0.0000000000     0.0000000000     0.0000000000
   13      C       0.6450240000     0.5452620000     1.1130200000
   14      C       1.7075540000     1.4429540000     0.8205780000
   15      H       0.3485870000     0.2947740000     2.1428810000
   16      C       1.8972270000     1.6029640000    -0.5635880000
   17      S       0.7411550000     0.6267220000    -1.4647480000
   18      C       2.5207870000     2.1300140000     1.8823800000
   19      H       2.1785590000     1.8409810000     2.8949740000
   20      H       2.4460160000     3.2350780000     1.8081370000
   21      H       3.5978180000     1.8716040000     1.8082300000
   22      H       2.6289970000     2.2212990000    -1.0971140000
 ----------------------------------------------------------------

   10   -1179.6177054745      9.89e-07  Convergence criterion met
 Total energy in the final basis set =    -1179.6177054745
        RIMP2         total energy =     -1181.6146724574 a.u.

                    Orbital Energies (a.u.)
 --------------------------------------------------------------

 Alpha MOs
 -- Occupied --
-91.9804 -91.9769 -11.2809 -11.2805 -11.2655 -11.2608 -11.2562 -11.2526
-11.2395 -11.2383 -11.2305 -11.2218  -8.9818  -8.9771  -6.6623  -6.6617
 -6.6613  -6.6582  -6.6576  -6.6569  -1.1875  -1.1460  -1.0452  -1.0221
 -0.9973  -0.9514  -0.9098  -0.8959  -0.7931  -0.7633  -0.7253  -0.6951
 -0.6556  -0.6190  -0.5870  -0.5823  -0.5765  -0.5688  -0.5493  -0.5352
 -0.5244  -0.5218  -0.5111  -0.4951  -0.4708  -0.4564  -0.4457  -0.3659
 -0.3388  -0.3315  -0.2664

          Ground-State Mulliken Net Atomic Charges

     Atom                 Charge (a.u.)
  ----------------------------------------
      1 C                    -0.230761
      2 C                    -0.252422
      3 C                     0.013809
      4 H                     0.184317
      5 C                    -0.006981
      6 S                    -0.011159
      7 C                    -0.277090
      8 H                     0.102051
      9 H                     0.114294
     10 H                     0.104830
     11 H                     0.201288
     12 C                    -0.076028
     13 C                    -0.135278
     14 C                    -0.012388
     15 H                     0.186743
     16 C                    -0.198645
     17 S                     0.041817
     18 C                    -0.266272
     19 H                     0.103251
     20 H                     0.107470
     21 H                     0.105952
     22 H                     0.201201
  ----------------------------------------
  Sum of atomic charges =     0.000000

                    Cartesian Multipole Moments
 -----------------------------------------------------------------
    Charge (ESU x 10^10)
                -0.0000
    Dipole Moment (Debye)
         X       3.0391      Y       1.0775      Z       0.0214
       Tot       3.2245
    Quadrupole Moments (Debye-Ang)
        XX     -83.8865     XY       4.7953     YY     -79.1826
        XZ      -2.2588     YZ       2.6182     ZZ     -81.2982

 Total job time:  52.10s(wall), 1784.88s(cpu)
        *  Thank you very much for using Q-Chem.  Have a nice day.  *
