 Q-Chem 5.4, Q-Chem, Inc., Pleasanton, CA (2021)
 Q-Chem 5.4.0 for Intel X86 EM64T Linux

User input:
--------------------------------------------------------------
$molecule
0 1
C	-0.246754	-3.887800	-0.681143
C	0.227093	-3.701456	0.620906
C	0.371543	-2.345170	1.019618
H	0.468992	-4.545233	1.284357
C	0.000000	-1.450135	0.000000
S	-0.522097	-2.321334	-1.435522
C	0.866035	-1.934439	2.378731
H	1.093799	-2.819799	3.003272
H	0.114688	-1.326210	2.924444
H	1.791841	-1.325374	2.313987
H	-0.445911	-4.815326	-1.229547
C	0.000000	0.000000	0.000000
C	0.729909	0.424971	1.113020
C	1.932179	1.124518	0.820578
H	0.394478	0.229765	2.142881
C	2.146756	1.249161	-0.563588
S	0.838724	0.488500	-1.464748
C	2.852364	1.659924	1.882380
H	2.465145	1.434710	2.894974
H	2.970621	2.761183	1.808137
H	3.868160	1.218416	1.808230
H	2.974781	1.731032	-1.097114
$end

$rem
JOBTYPE		SP
EXCHANGE	HF
CORRELATION	pRIMP2
BASIS		cc-pvtz
METHOD		rimp2
AUX_BASIS	rimp2-cc-pvtz
SOLVENT_METHOD	PCM
PURECART	11111
SYMMETRY	false
MEM_TOTAL	110000
SCF_CONVERGENCE = 6
THRESH=10
GUI = 2
$end

$solvent
dielectric 4.90
$end
--------------------------------------------------------------

             Standard Nuclear Orientation (Angstroms)
    I     Atom           X                Y                Z
 ----------------------------------------------------------------
    1      C      -0.2467540000    -3.8878000000    -0.6811430000
    2      C       0.2270930000    -3.7014560000     0.6209060000
    3      C       0.3715430000    -2.3451700000     1.0196180000
    4      H       0.4689920000    -4.5452330000     1.2843570000
    5      C       0.0000000000    -1.4501350000     0.0000000000
    6      S      -0.5220970000    -2.3213340000    -1.4355220000
    7      C       0.8660350000    -1.9344390000     2.3787310000
    8      H       1.0937990000    -2.8197990000     3.0032720000
    9      H       0.1146880000    -1.3262100000     2.9244440000
   10      H       1.7918410000    -1.3253740000     2.3139870000
   11      H      -0.4459110000    -4.8153260000    -1.2295470000
   12      C       0.0000000000     0.0000000000     0.0000000000
   13      C       0.7299090000     0.4249710000     1.1130200000
   14      C       1.9321790000     1.1245180000     0.8205780000
   15      H       0.3944780000     0.2297650000     2.1428810000
   16      C       2.1467560000     1.2491610000    -0.5635880000
   17      S       0.8387240000     0.4885000000    -1.4647480000
   18      C       2.8523640000     1.6599240000     1.8823800000
   19      H       2.4651450000     1.4347100000     2.8949740000
   20      H       2.9706210000     2.7611830000     1.8081370000
   21      H       3.8681600000     1.2184160000     1.8082300000
   22      H       2.9747810000     1.7310320000    -1.0971140000
 ----------------------------------------------------------------

   11   -1179.6033419444      5.93e-07  Convergence criterion met
 Total energy in the final basis set =    -1179.6033419444
        RIMP2         total energy =     -1181.6013108646 a.u.

                    Orbital Energies (a.u.)
 --------------------------------------------------------------

 Alpha MOs
 -- Occupied --
-91.9827 -91.9730 -11.2924 -11.2798 -11.2633 -11.2591 -11.2554 -11.2549
-11.2383 -11.2368 -11.2328 -11.2286  -8.9836  -8.9737  -6.6644  -6.6635
 -6.6631  -6.6547  -6.6541  -6.6535  -1.1933  -1.1454  -1.0473  -1.0280
 -0.9958  -0.9522  -0.9147  -0.8950  -0.7966  -0.7575  -0.7321  -0.7041
 -0.6526  -0.6193  -0.6014  -0.5865  -0.5688  -0.5582  -0.5498  -0.5421
 -0.5318  -0.5216  -0.5049  -0.4871  -0.4781  -0.4589  -0.4472  -0.3640
 -0.3482  -0.3309  -0.2648

          Ground-State Mulliken Net Atomic Charges

     Atom                 Charge (a.u.)
  ----------------------------------------
      1 C                    -0.234405
      2 C                    -0.255261
      3 C                     0.021345
      4 H                     0.182295
      5 C                    -0.002247
      6 S                    -0.009746
      7 C                    -0.288110
      8 H                     0.114209
      9 H                     0.095004
     10 H                     0.110427
     11 H                     0.200931
     12 C                    -0.131908
     13 C                    -0.124410
     14 C                    -0.016084
     15 H                     0.205949
     16 C                    -0.167464
     17 S                     0.041698
     18 C                    -0.280945
     19 H                     0.105296
     20 H                     0.119394
     21 H                     0.109516
     22 H                     0.204517
  ----------------------------------------
  Sum of atomic charges =     0.000000

                    Cartesian Multipole Moments
 -----------------------------------------------------------------
    Charge (ESU x 10^10)
                -0.0000
    Dipole Moment (Debye)
         X       3.4744      Y       1.1371      Z       3.1906
       Tot       4.8523
    Quadrupole Moments (Debye-Ang)
        XX     -81.9843     XY       4.9160     YY     -80.8534
        XZ       2.5352     YZ      -1.8057     ZZ     -80.6372

 Total job time:  55.32s(wall), 1965.70s(cpu)
        *  Thank you very much for using Q-Chem.  Have a nice day.  *
