 Q-Chem 5.4, Q-Chem, Inc., Pleasanton, CA (2021)
 Q-Chem 5.4.0 for Intel X86 EM64T Linux

User input:
--------------------------------------------------------------
$molecule
0 1
C	0.680396	-3.887800	0.248806
C	-0.621614	-3.701456	-0.225147
C	-1.019896	-2.345170	-0.370780
H	-1.285337	-4.545233	-0.466300
C	0.000000	-1.450135	0.000000
S	1.435271	-2.321334	0.522786
C	-2.378891	-1.934439	-0.865597
H	-3.003720	-2.819799	-1.092567
H	-2.313975	-1.326210	-1.791940
H	-2.924390	-1.325374	-0.114772
H	1.228514	-4.815326	0.448750
C	0.000000	0.000000	0.000000
C	0.419634	0.732990	1.113020
C	1.111057	1.939951	0.820578
H	0.226746	0.396221	2.142881
C	1.234565	2.155183	-0.563588
S	0.482106	0.842416	-1.464748
C	1.640257	2.863718	1.882380
H	1.417524	2.475067	2.894974
H	1.192042	3.876565	1.808137
H	2.740717	2.989259	1.808230
H	1.710720	2.986508	-1.097114
$end

$rem
JOBTYPE		SP
EXCHANGE	HF
CORRELATION	pRIMP2
BASIS		cc-pvtz
METHOD		rimp2
AUX_BASIS	rimp2-cc-pvtz
SOLVENT_METHOD	PCM
PURECART	11111
SYMMETRY	false
MEM_TOTAL	110000
SCF_CONVERGENCE = 6
THRESH=10
GUI = 2
$end

$solvent
dielectric 4.90
$end
--------------------------------------------------------------

             Standard Nuclear Orientation (Angstroms)
    I     Atom           X                Y                Z
 ----------------------------------------------------------------
    1      C       0.6803960000    -3.8878000000     0.2488060000
    2      C      -0.6216140000    -3.7014560000    -0.2251470000
    3      C      -1.0198960000    -2.3451700000    -0.3707800000
    4      H      -1.2853370000    -4.5452330000    -0.4663000000
    5      C       0.0000000000    -1.4501350000     0.0000000000
    6      S       1.4352710000    -2.3213340000     0.5227860000
    7      C      -2.3788910000    -1.9344390000    -0.8655970000
    8      H      -3.0037200000    -2.8197990000    -1.0925670000
    9      H      -2.3139750000    -1.3262100000    -1.7919400000
   10      H      -2.9243900000    -1.3253740000    -0.1147720000
   11      H       1.2285140000    -4.8153260000     0.4487500000
   12      C       0.0000000000     0.0000000000     0.0000000000
   13      C       0.4196340000     0.7329900000     1.1130200000
   14      C       1.1110570000     1.9399510000     0.8205780000
   15      H       0.2267460000     0.3962210000     2.1428810000
   16      C       1.2345650000     2.1551830000    -0.5635880000
   17      S       0.4821060000     0.8424160000    -1.4647480000
   18      C       1.6402570000     2.8637180000     1.8823800000
   19      H       1.4175240000     2.4750670000     2.8949740000
   20      H       1.1920420000     3.8765650000     1.8081370000
   21      H       2.7407170000     2.9892590000     1.8082300000
   22      H       1.7107200000     2.9865080000    -1.0971140000
 ----------------------------------------------------------------

   10   -1179.6708985124      5.13e-07  Convergence criterion met
 Total energy in the final basis set =    -1179.6708985124
        RIMP2         total energy =     -1181.6522292029 a.u.

                    Orbital Energies (a.u.)
 --------------------------------------------------------------

 Alpha MOs
 -- Occupied --
-91.9842 -91.9839 -11.2726 -11.2716 -11.2707 -11.2707 -11.2516 -11.2492
-11.2460 -11.2405 -11.2294 -11.2283  -8.9839  -8.9834  -6.6648  -6.6643
 -6.6642  -6.6638  -6.6636  -6.6631  -1.1796  -1.1488  -1.0401  -1.0215
 -0.9976  -0.9519  -0.9133  -0.8918  -0.7982  -0.7556  -0.7290  -0.6919
 -0.6607  -0.6173  -0.5826  -0.5795  -0.5712  -0.5692  -0.5505  -0.5327
 -0.5274  -0.5180  -0.5079  -0.4927  -0.4808  -0.4652  -0.4616  -0.3478
 -0.3362  -0.3283  -0.2952

          Ground-State Mulliken Net Atomic Charges

     Atom                 Charge (a.u.)
  ----------------------------------------
      1 C                    -0.209596
      2 C                    -0.253422
      3 C                     0.052009
      4 H                     0.183496
      5 C                    -0.049043
      6 S                     0.026375
      7 C                    -0.285915
      8 H                     0.107158
      9 H                     0.109025
     10 H                     0.110668
     11 H                     0.203788
     12 C                    -0.000303
     13 C                    -0.278766
     14 C                     0.049943
     15 H                     0.187410
     16 C                    -0.231766
     17 S                     0.029040
     18 C                    -0.268081
     19 H                     0.103057
     20 H                     0.107755
     21 H                     0.108088
     22 H                     0.199080
  ----------------------------------------
  Sum of atomic charges =     0.000000

                    Cartesian Multipole Moments
 -----------------------------------------------------------------
    Charge (ESU x 10^10)
                -0.0000
    Dipole Moment (Debye)
         X      -0.2961      Y       0.4114      Z       1.0077
       Tot       1.1280
    Quadrupole Moments (Debye-Ang)
        XX     -84.1668     XY       7.0047     YY     -71.8238
        XZ       2.6466     YZ       1.7232     ZZ     -85.8033

 Total job time:  47.39s(wall), 1671.30s(cpu)
        *  Thank you very much for using Q-Chem.  Have a nice day.  *
