 Q-Chem 5.4, Q-Chem, Inc., Pleasanton, CA (2021)
 Q-Chem 5.4.0 for Intel X86 EM64T Linux

User input:
--------------------------------------------------------------
$molecule
0 1
C	-3.684787	-1.436027	-0.000188
C	-3.759824	-0.039977	-0.000191
C	-2.506278	0.629331	-0.000375
H	-4.720382	0.496651	-0.000077
C	-1.424751	-0.270142	-0.000479
S	-1.996142	-1.933214	-0.000391
C	-2.372160	2.126803	-0.000421
H	-3.365861	2.615011	-0.000295
H	-1.821944	2.491507	-0.892902
H	-1.821700	2.491541	0.891895
H	-4.487389	-2.182047	-0.000072
C	0.000000	0.000000	0.000000
C	1.036945	-0.936443	0.000292
C	2.349226	-0.390310	0.000454
H	0.847234	-2.020529	0.000188
C	2.335515	1.015857	0.000342
S	0.681144	1.619759	0.000570
C	3.592802	-1.235497	0.000531
H	3.341070	-2.313754	0.000529
H	4.223499	-1.040534	0.892988
H	4.223590	-1.040556	-0.891867
H	3.177555	1.718313	0.000533
$end

$rem
JOBTYPE		SP
EXCHANGE	HF
CORRELATION	pRIMP2
BASIS		cc-pvtz
METHOD		rimp2
AUX_BASIS	rimp2-cc-pvtz
SOLVENT_METHOD	PCM
PURECART	11111
SYMMETRY	false
MEM_TOTAL	110000
SCF_CONVERGENCE = 6
THRESH=10
GUI = 2
$end

$solvent
dielectric 4.90
$end
--------------------------------------------------------------

             Standard Nuclear Orientation (Angstroms)
    I     Atom           X                Y                Z
 ----------------------------------------------------------------
    1      C      -3.6847870000    -1.4360270000    -0.0001880000
    2      C      -3.7598240000    -0.0399770000    -0.0001910000
    3      C      -2.5062780000     0.6293310000    -0.0003750000
    4      H      -4.7203820000     0.4966510000    -0.0000770000
    5      C      -1.4247510000    -0.2701420000    -0.0004790000
    6      S      -1.9961420000    -1.9332140000    -0.0003910000
    7      C      -2.3721600000     2.1268030000    -0.0004210000
    8      H      -3.3658610000     2.6150110000    -0.0002950000
    9      H      -1.8219440000     2.4915070000    -0.8929020000
   10      H      -1.8217000000     2.4915410000     0.8918950000
   11      H      -4.4873890000    -2.1820470000    -0.0000720000
   12      C       0.0000000000     0.0000000000     0.0000000000
   13      C       1.0369450000    -0.9364430000     0.0002920000
   14      C       2.3492260000    -0.3903100000     0.0004540000
   15      H       0.8472340000    -2.0205290000     0.0001880000
   16      C       2.3355150000     1.0158570000     0.0003420000
   17      S       0.6811440000     1.6197590000     0.0005700000
   18      C       3.5928020000    -1.2354970000     0.0005310000
   19      H       3.3410700000    -2.3137540000     0.0005290000
   20      H       4.2234990000    -1.0405340000     0.8929880000
   21      H       4.2235900000    -1.0405560000    -0.8918670000
   22      H       3.1775550000     1.7183130000     0.0005330000
 ----------------------------------------------------------------

   10   -1179.6867238475      5.46e-07  Convergence criterion met
 Total energy in the final basis set =    -1179.6867238475
        RIMP2         total energy =     -1181.6668138621 a.u.

                    Orbital Energies (a.u.)
 --------------------------------------------------------------

 Alpha MOs
 -- Occupied --
-91.9860 -91.9856 -11.2850 -11.2792 -11.2739 -11.2614 -11.2543 -11.2522
-11.2442 -11.2385 -11.2304 -11.2288  -8.9858  -8.9852  -6.6667  -6.6662
 -6.6661  -6.6656  -6.6656  -6.6649  -1.1810  -1.1502  -1.0415  -1.0260
 -0.9986  -0.9526  -0.9150  -0.8957  -0.7997  -0.7653  -0.7190  -0.6960
 -0.6635  -0.6160  -0.5840  -0.5826  -0.5771  -0.5696  -0.5530  -0.5337
 -0.5230  -0.5207  -0.5110  -0.4976  -0.4915  -0.4681  -0.4509  -0.3708
 -0.3440  -0.3402  -0.2690

          Ground-State Mulliken Net Atomic Charges

     Atom                 Charge (a.u.)
  ----------------------------------------
      1 C                    -0.210322
      2 C                    -0.258051
      3 C                     0.057295
      4 H                     0.186058
      5 C                    -0.024387
      6 S                     0.007525
      7 C                    -0.324338
      8 H                     0.119475
      9 H                     0.116111
     10 H                     0.116064
     11 H                     0.207802
     12 C                     0.062101
     13 C                    -0.274391
     14 C                     0.035679
     15 H                     0.175381
     16 C                    -0.261777
     17 S                     0.021653
     18 C                    -0.271361
     19 H                     0.102805
     20 H                     0.108580
     21 H                     0.108581
     22 H                     0.199517
  ----------------------------------------
  Sum of atomic charges =     0.000000

                    Cartesian Multipole Moments
 -----------------------------------------------------------------
    Charge (ESU x 10^10)
                -0.0000
    Dipole Moment (Debye)
         X      -0.0671      Y       0.1774      Z       0.0006
       Tot       0.1896
    Quadrupole Moments (Debye-Ang)
        XX     -67.5163     XY      -1.2623     YY     -80.6532
        XZ       0.0007     YZ      -0.0004     ZZ     -92.8043

 Total job time:  53.59s(wall), 1779.74s(cpu)
        *  Thank you very much for using Q-Chem.  Have a nice day.  *
