 Q-Chem 5.4, Q-Chem, Inc., Pleasanton, CA (2021)
 Q-Chem 5.4.0 for Intel X86 EM64T Linux

User input:
--------------------------------------------------------------
$molecule
0 1
C	0.681143	-3.887800	-0.246754
C	-0.620906	-3.701456	0.227093
C	-1.019618	-2.345170	0.371543
H	-1.284357	-4.545233	0.468992
C	0.000000	-1.450135	0.000000
S	1.435522	-2.321334	-0.522097
C	-2.378731	-1.934439	0.866035
H	-3.003272	-2.819799	1.093799
H	-2.924444	-1.326210	0.114688
H	-2.313987	-1.325374	1.791841
H	1.229547	-4.815326	-0.445911
C	0.000000	0.000000	0.000000
C	0.354153	0.766774	1.113020
C	0.937751	2.029404	0.820578
H	0.191350	0.414475	2.142881
C	1.042030	2.254581	-0.563588
S	0.406851	0.881228	-1.464748
C	1.384426	2.995779	1.882380
H	1.196413	2.589194	2.894974
H	0.849641	3.965707	1.808137
H	2.469756	3.216753	1.808230
H	1.443919	3.124243	-1.097114
$end

$rem
JOBTYPE		SP
EXCHANGE	HF
CORRELATION	pRIMP2
BASIS		cc-pvtz
METHOD		rimp2
AUX_BASIS	rimp2-cc-pvtz
SOLVENT_METHOD	PCM
PURECART	11111
SYMMETRY	false
MEM_TOTAL	110000
SCF_CONVERGENCE = 6
THRESH=10
GUI = 2
$end

$solvent
dielectric 4.90
$end
--------------------------------------------------------------

             Standard Nuclear Orientation (Angstroms)
    I     Atom           X                Y                Z
 ----------------------------------------------------------------
    1      C       0.6811430000    -3.8878000000    -0.2467540000
    2      C      -0.6209060000    -3.7014560000     0.2270930000
    3      C      -1.0196180000    -2.3451700000     0.3715430000
    4      H      -1.2843570000    -4.5452330000     0.4689920000
    5      C       0.0000000000    -1.4501350000     0.0000000000
    6      S       1.4355220000    -2.3213340000    -0.5220970000
    7      C      -2.3787310000    -1.9344390000     0.8660350000
    8      H      -3.0032720000    -2.8197990000     1.0937990000
    9      H      -2.9244440000    -1.3262100000     0.1146880000
   10      H      -2.3139870000    -1.3253740000     1.7918410000
   11      H       1.2295470000    -4.8153260000    -0.4459110000
   12      C       0.0000000000     0.0000000000     0.0000000000
   13      C       0.3541530000     0.7667740000     1.1130200000
   14      C       0.9377510000     2.0294040000     0.8205780000
   15      H       0.1913500000     0.4144750000     2.1428810000
   16      C       1.0420300000     2.2545810000    -0.5635880000
   17      S       0.4068510000     0.8812280000    -1.4647480000
   18      C       1.3844260000     2.9957790000     1.8823800000
   19      H       1.1964130000     2.5891940000     2.8949740000
   20      H       0.8496410000     3.9657070000     1.8081370000
   21      H       2.4697560000     3.2167530000     1.8082300000
   22      H       1.4439190000     3.1242430000    -1.0971140000
 ----------------------------------------------------------------

   10   -1179.6745467691      5.11e-07  Convergence criterion met
 Total energy in the final basis set =    -1179.6745467691
        RIMP2         total energy =     -1181.6548576330 a.u.

                    Orbital Energies (a.u.)
 --------------------------------------------------------------

 Alpha MOs
 -- Occupied --
-91.9855 -91.9839 -11.2754 -11.2734 -11.2703 -11.2690 -11.2517 -11.2495
-11.2454 -11.2408 -11.2295 -11.2284  -8.9851  -8.9835  -6.6659  -6.6654
 -6.6648  -6.6644  -6.6638  -6.6632  -1.1793  -1.1491  -1.0401  -1.0220
 -0.9963  -0.9543  -0.9120  -0.8926  -0.7997  -0.7509  -0.7325  -0.6943
 -0.6607  -0.6167  -0.5836  -0.5793  -0.5696  -0.5680  -0.5510  -0.5317
 -0.5303  -0.5188  -0.5079  -0.4913  -0.4824  -0.4674  -0.4611  -0.3518
 -0.3368  -0.3263  -0.2938

          Ground-State Mulliken Net Atomic Charges

     Atom                 Charge (a.u.)
  ----------------------------------------
      1 C                    -0.210235
      2 C                    -0.252322
      3 C                     0.054248
      4 H                     0.183723
      5 C                    -0.057931
      6 S                     0.027016
      7 C                    -0.284997
      8 H                     0.107022
      9 H                     0.110630
     10 H                     0.107658
     11 H                     0.203746
     12 C                    -0.024377
     13 C                    -0.208304
     14 C                     0.016719
     15 H                     0.185769
     16 C                    -0.226420
     17 S                     0.021062
     18 C                    -0.270222
     19 H                     0.102763
     20 H                     0.107887
     21 H                     0.107999
     22 H                     0.198566
  ----------------------------------------
  Sum of atomic charges =     0.000000

                    Cartesian Multipole Moments
 -----------------------------------------------------------------
    Charge (ESU x 10^10)
                -0.0000
    Dipole Moment (Debye)
         X      -0.4873      Y       0.4748      Z       2.0291
       Tot       2.1401
    Quadrupole Moments (Debye-Ang)
        XX     -85.0404     XY       6.3493     YY     -71.2233
        XZ      -1.5919     YZ       0.1948     ZZ     -85.8103

 Total job time:  51.01s(wall), 1761.42s(cpu)
        *  Thank you very much for using Q-Chem.  Have a nice day.  *
