 Q-Chem 5.4, Q-Chem, Inc., Pleasanton, CA (2021)
 Q-Chem 5.4.0 for Intel X86 EM64T Linux

User input:
--------------------------------------------------------------
$molecule
0 1
C	-0.363176	-3.887800	0.626855
C	0.329669	-3.701456	-0.573074
C	0.542250	-2.345170	-0.940016
H	0.682412	-4.545233	-1.184837
C	0.000000	-1.450135	0.000000
S	-0.764076	-2.321334	1.322686
C	1.265537	-1.934439	-2.192440
H	1.597559	-2.819799	-2.768365
H	2.166534	-1.326210	-1.967653
H	0.620843	-1.325374	-2.860032
H	-0.655262	-4.815326	1.131925
C	0.000000	0.000000	0.000000
C	0.419634	0.732990	1.113020
C	1.111057	1.939951	0.820578
H	0.226746	0.396221	2.142881
C	1.234565	2.155183	-0.563588
S	0.482106	0.842416	-1.464748
C	1.640257	2.863718	1.882380
H	1.417524	2.475067	2.894974
H	1.192042	3.876565	1.808137
H	2.740717	2.989259	1.808230
H	1.710720	2.986508	-1.097114
$end

$rem
JOBTYPE		SP
EXCHANGE	HF
CORRELATION	pRIMP2
BASIS		cc-pvtz
METHOD		rimp2
AUX_BASIS	rimp2-cc-pvtz
SOLVENT_METHOD	PCM
PURECART	11111
SYMMETRY	false
MEM_TOTAL	110000
SCF_CONVERGENCE = 6
THRESH=10
GUI = 2
$end

$solvent
dielectric 4.90
$end
--------------------------------------------------------------

             Standard Nuclear Orientation (Angstroms)
    I     Atom           X                Y                Z
 ----------------------------------------------------------------
    1      C      -0.3631760000    -3.8878000000     0.6268550000
    2      C       0.3296690000    -3.7014560000    -0.5730740000
    3      C       0.5422500000    -2.3451700000    -0.9400160000
    4      H       0.6824120000    -4.5452330000    -1.1848370000
    5      C       0.0000000000    -1.4501350000     0.0000000000
    6      S      -0.7640760000    -2.3213340000     1.3226860000
    7      C       1.2655370000    -1.9344390000    -2.1924400000
    8      H       1.5975590000    -2.8197990000    -2.7683650000
    9      H       2.1665340000    -1.3262100000    -1.9676530000
   10      H       0.6208430000    -1.3253740000    -2.8600320000
   11      H      -0.6552620000    -4.8153260000     1.1319250000
   12      C       0.0000000000     0.0000000000     0.0000000000
   13      C       0.4196340000     0.7329900000     1.1130200000
   14      C       1.1110570000     1.9399510000     0.8205780000
   15      H       0.2267460000     0.3962210000     2.1428810000
   16      C       1.2345650000     2.1551830000    -0.5635880000
   17      S       0.4821060000     0.8424160000    -1.4647480000
   18      C       1.6402570000     2.8637180000     1.8823800000
   19      H       1.4175240000     2.4750670000     2.8949740000
   20      H       1.1920420000     3.8765650000     1.8081370000
   21      H       2.7407170000     2.9892590000     1.8082300000
   22      H       1.7107200000     2.9865080000    -1.0971140000
 ----------------------------------------------------------------

   10   -1179.6628768624      5.81e-07  Convergence criterion met
 Total energy in the final basis set =    -1179.6628768624
        RIMP2         total energy =     -1181.6489947902 a.u.

                    Orbital Energies (a.u.)
 --------------------------------------------------------------

 Alpha MOs
 -- Occupied --
-91.9833 -91.9823 -11.2789 -11.2772 -11.2692 -11.2680 -11.2518 -11.2474
-11.2457 -11.2417 -11.2294 -11.2257  -8.9835  -8.9822  -6.6643  -6.6637
 -6.6632  -6.6632  -6.6626  -6.6620  -1.1818  -1.1486  -1.0421  -1.0222
 -0.9978  -0.9525  -0.9119  -0.8949  -0.7966  -0.7626  -0.7227  -0.6955
 -0.6595  -0.6166  -0.5833  -0.5795  -0.5773  -0.5694  -0.5508  -0.5325
 -0.5258  -0.5200  -0.5115  -0.4957  -0.4805  -0.4644  -0.4509  -0.3652
 -0.3413  -0.3363  -0.2706

          Ground-State Mulliken Net Atomic Charges

     Atom                 Charge (a.u.)
  ----------------------------------------
      1 C                    -0.218483
      2 C                    -0.252383
      3 C                     0.046066
      4 H                     0.185336
      5 C                    -0.035278
      6 S                     0.007320
      7 C                    -0.300010
      8 H                     0.108330
      9 H                     0.120385
     10 H                     0.108649
     11 H                     0.204071
     12 C                    -0.007892
     13 C                    -0.206811
     14 C                     0.012109
     15 H                     0.183148
     16 C                    -0.225481
     17 S                     0.021669
     18 C                    -0.268902
     19 H                     0.103069
     20 H                     0.108240
     21 H                     0.107229
     22 H                     0.199620
  ----------------------------------------
  Sum of atomic charges =     0.000000

                    Cartesian Multipole Moments
 -----------------------------------------------------------------
    Charge (ESU x 10^10)
                -0.0000
    Dipole Moment (Debye)
         X       1.9143      Y       0.5808      Z       0.0523
       Tot       2.0012
    Quadrupole Moments (Debye-Ang)
        XX     -88.2588     XY       3.7109     YY     -73.0234
        XZ      -2.4082     YZ       2.8556     ZZ     -81.5150

 Total job time:  48.28s(wall), 1696.77s(cpu)
        *  Thank you very much for using Q-Chem.  Have a nice day.  *
