 Q-Chem 5.4, Q-Chem, Inc., Pleasanton, CA (2021)
 Q-Chem 5.4.0 for Intel X86 EM64T Linux

User input:
--------------------------------------------------------------
$molecule
0 1
C	-0.626855	-3.887800	-0.363176
C	0.573074	-3.701456	0.329669
C	0.940016	-2.345170	0.542250
H	1.184837	-4.545233	0.682412
C	0.000000	-1.450135	0.000000
S	-1.322686	-2.321334	-0.764076
C	2.192440	-1.934439	1.265537
H	2.768365	-2.819799	1.597559
H	1.967653	-1.326210	2.166534
H	2.860032	-1.325374	0.620843
H	-1.131925	-4.815326	-0.655262
C	0.000000	0.000000	0.000000
C	0.419634	0.732990	1.113020
C	1.111057	1.939951	0.820578
H	0.226746	0.396221	2.142881
C	1.234565	2.155183	-0.563588
S	0.482106	0.842416	-1.464748
C	1.640257	2.863718	1.882380
H	1.417524	2.475067	2.894974
H	1.192042	3.876565	1.808137
H	2.740717	2.989259	1.808230
H	1.710720	2.986508	-1.097114
$end

$rem
JOBTYPE		SP
EXCHANGE	HF
CORRELATION	pRIMP2
BASIS		cc-pvtz
METHOD		rimp2
AUX_BASIS	rimp2-cc-pvtz
SOLVENT_METHOD	PCM
PURECART	11111
SYMMETRY	false
MEM_TOTAL	110000
SCF_CONVERGENCE = 6
THRESH=10
GUI = 2
$end

$solvent
dielectric 4.90
$end
--------------------------------------------------------------

             Standard Nuclear Orientation (Angstroms)
    I     Atom           X                Y                Z
 ----------------------------------------------------------------
    1      C      -0.6268550000    -3.8878000000    -0.3631760000
    2      C       0.5730740000    -3.7014560000     0.3296690000
    3      C       0.9400160000    -2.3451700000     0.5422500000
    4      H       1.1848370000    -4.5452330000     0.6824120000
    5      C       0.0000000000    -1.4501350000     0.0000000000
    6      S      -1.3226860000    -2.3213340000    -0.7640760000
    7      C       2.1924400000    -1.9344390000     1.2655370000
    8      H       2.7683650000    -2.8197990000     1.5975590000
    9      H       1.9676530000    -1.3262100000     2.1665340000
   10      H       2.8600320000    -1.3253740000     0.6208430000
   11      H      -1.1319250000    -4.8153260000    -0.6552620000
   12      C       0.0000000000     0.0000000000     0.0000000000
   13      C       0.4196340000     0.7329900000     1.1130200000
   14      C       1.1110570000     1.9399510000     0.8205780000
   15      H       0.2267460000     0.3962210000     2.1428810000
   16      C       1.2345650000     2.1551830000    -0.5635880000
   17      S       0.4821060000     0.8424160000    -1.4647480000
   18      C       1.6402570000     2.8637180000     1.8823800000
   19      H       1.4175240000     2.4750670000     2.8949740000
   20      H       1.1920420000     3.8765650000     1.8081370000
   21      H       2.7407170000     2.9892590000     1.8082300000
   22      H       1.7107200000     2.9865080000    -1.0971140000
 ----------------------------------------------------------------

   10   -1179.6698682177      5.96e-07  Convergence criterion met
 Total energy in the final basis set =    -1179.6698682177
        RIMP2         total energy =     -1181.6532998727 a.u.

                    Orbital Energies (a.u.)
 --------------------------------------------------------------

 Alpha MOs
 -- Occupied --
-91.9845 -91.9816 -11.2742 -11.2723 -11.2710 -11.2706 -11.2519 -11.2514
-11.2460 -11.2415 -11.2300 -11.2280  -8.9842  -8.9815  -6.6651  -6.6645
 -6.6639  -6.6624  -6.6618  -6.6612  -1.1800  -1.1489  -1.0405  -1.0222
 -0.9963  -0.9541  -0.9128  -0.8924  -0.7980  -0.7519  -0.7326  -0.6969
 -0.6597  -0.6166  -0.5851  -0.5802  -0.5712  -0.5653  -0.5504  -0.5340
 -0.5276  -0.5218  -0.5091  -0.4912  -0.4798  -0.4653  -0.4592  -0.3430
 -0.3422  -0.3357  -0.2887

          Ground-State Mulliken Net Atomic Charges

     Atom                 Charge (a.u.)
  ----------------------------------------
      1 C                    -0.211043
      2 C                    -0.254291
      3 C                     0.065541
      4 H                     0.184839
      5 C                    -0.033003
      6 S                     0.016549
      7 C                    -0.286504
      8 H                     0.112249
      9 H                     0.108135
     10 H                     0.116015
     11 H                     0.203589
     12 C                    -0.045718
     13 C                    -0.259388
     14 C                     0.044507
     15 H                     0.192323
     16 C                    -0.233032
     17 S                     0.029248
     18 C                    -0.269229
     19 H                     0.102672
     20 H                     0.109182
     21 H                     0.107572
     22 H                     0.199786
  ----------------------------------------
  Sum of atomic charges =     0.000000

                    Cartesian Multipole Moments
 -----------------------------------------------------------------
    Charge (ESU x 10^10)
                -0.0000
    Dipole Moment (Debye)
         X       2.4583      Y       0.4525      Z       2.3357
       Tot       3.4210
    Quadrupole Moments (Debye-Ang)
        XX     -85.1453     XY       2.9134     YY     -71.9196
        XZ       3.3119     YZ      -0.2243     ZZ     -85.0069

 Total job time:  53.39s(wall), 1991.15s(cpu)
        *  Thank you very much for using Q-Chem.  Have a nice day.  *
