 Q-Chem 5.4, Q-Chem, Inc., Pleasanton, CA (2021)
 Q-Chem 5.4.0 for Intel X86 EM64T Linux

User input:
--------------------------------------------------------------
$molecule
0 1
C	0.361285	-3.887800	0.627947
C	-0.331462	-3.701456	-0.572038
C	-0.542953	-2.345170	-0.939610
H	-0.684893	-4.545233	-1.183405
C	-0.000000	-1.450135	-0.000000
S	0.763441	-2.321334	1.323052
C	-1.265941	-1.934439	-2.192207
H	-1.598695	-2.819799	-2.767709
H	-0.620770	-1.326210	-2.860100
H	-2.166438	-1.325374	-1.967682
H	0.652645	-4.815326	1.133436
C	0.000000	0.000000	0.000000
C	0.215623	0.816623	1.113020
C	0.571102	2.161411	0.820578
H	0.116470	0.441406	2.142881
C	0.634696	2.401276	-0.563588
S	0.247646	0.938489	-1.464748
C	0.843182	3.190669	1.882380
H	0.728628	2.757614	2.894974
H	0.148095	4.052998	1.808137
H	1.873652	3.596752	1.808230
H	0.879464	3.327513	-1.097114
$end

$rem
JOBTYPE		SP
EXCHANGE	HF
CORRELATION	pRIMP2
BASIS		cc-pvtz
METHOD		rimp2
AUX_BASIS	rimp2-cc-pvtz
SOLVENT_METHOD	PCM
PURECART	11111
SYMMETRY	false
MEM_TOTAL	110000
SCF_CONVERGENCE = 6
THRESH=10
GUI = 2
$end

$solvent
dielectric 4.90
$end
--------------------------------------------------------------

             Standard Nuclear Orientation (Angstroms)
    I     Atom           X                Y                Z
 ----------------------------------------------------------------
    1      C       0.3612850000    -3.8878000000     0.6279470000
    2      C      -0.3314620000    -3.7014560000    -0.5720380000
    3      C      -0.5429530000    -2.3451700000    -0.9396100000
    4      H      -0.6848930000    -4.5452330000    -1.1834050000
    5      C       0.0000000000    -1.4501350000     0.0000000000
    6      S       0.7634410000    -2.3213340000     1.3230520000
    7      C      -1.2659410000    -1.9344390000    -2.1922070000
    8      H      -1.5986950000    -2.8197990000    -2.7677090000
    9      H      -0.6207700000    -1.3262100000    -2.8601000000
   10      H      -2.1664380000    -1.3253740000    -1.9676820000
   11      H       0.6526450000    -4.8153260000     1.1334360000
   12      C       0.0000000000     0.0000000000     0.0000000000
   13      C       0.2156230000     0.8166230000     1.1130200000
   14      C       0.5711020000     2.1614110000     0.8205780000
   15      H       0.1164700000     0.4414060000     2.1428810000
   16      C       0.6346960000     2.4012760000    -0.5635880000
   17      S       0.2476460000     0.9384890000    -1.4647480000
   18      C       0.8431820000     3.1906690000     1.8823800000
   19      H       0.7286280000     2.7576140000     2.8949740000
   20      H       0.1480950000     4.0529980000     1.8081370000
   21      H       1.8736520000     3.5967520000     1.8082300000
   22      H       0.8794640000     3.3275130000    -1.0971140000
 ----------------------------------------------------------------

   10   -1179.6837863839      5.36e-07  Convergence criterion met
 Total energy in the final basis set =    -1179.6837863839
        RIMP2         total energy =     -1181.6637906592 a.u.

                    Orbital Energies (a.u.)
 --------------------------------------------------------------

 Alpha MOs
 -- Occupied --
-91.9861 -91.9855 -11.2820 -11.2770 -11.2723 -11.2650 -11.2523 -11.2521
-11.2431 -11.2409 -11.2299 -11.2292  -8.9857  -8.9852  -6.6666  -6.6661
 -6.6661  -6.6655  -6.6654  -6.6649  -1.1804  -1.1500  -1.0409  -1.0245
 -0.9987  -0.9523  -0.9148  -0.8942  -0.7996  -0.7631  -0.7216  -0.6945
 -0.6627  -0.6165  -0.5836  -0.5786  -0.5777  -0.5699  -0.5522  -0.5336
 -0.5248  -0.5196  -0.5092  -0.4970  -0.4886  -0.4683  -0.4549  -0.3614
 -0.3428  -0.3412  -0.2739

          Ground-State Mulliken Net Atomic Charges

     Atom                 Charge (a.u.)
  ----------------------------------------
      1 C                    -0.213095
      2 C                    -0.250336
      3 C                     0.040024
      4 H                     0.185211
      5 C                    -0.023182
      6 S                     0.016920
      7 C                    -0.309157
      8 H                     0.112638
      9 H                     0.112598
     10 H                     0.117825
     11 H                     0.205473
     12 C                     0.050163
     13 C                    -0.300786
     14 C                     0.048951
     15 H                     0.182451
     16 C                    -0.255084
     17 S                     0.031234
     18 C                    -0.270601
     19 H                     0.103142
     20 H                     0.108173
     21 H                     0.109159
     22 H                     0.198279
  ----------------------------------------
  Sum of atomic charges =     0.000000

                    Cartesian Multipole Moments
 -----------------------------------------------------------------
    Charge (ESU x 10^10)
                -0.0000
    Dipole Moment (Debye)
         X      -0.2799      Y       0.1874      Z       0.1249
       Tot       0.3593
    Quadrupole Moments (Debye-Ang)
        XX     -90.3633     XY       3.8984     YY     -69.3471
        XZ       3.2630     YZ       3.1173     ZZ     -81.5718

 Total job time:  53.11s(wall), 1768.47s(cpu)
        *  Thank you very much for using Q-Chem.  Have a nice day.  *
