 Q-Chem 5.4, Q-Chem, Inc., Pleasanton, CA (2021)
 Q-Chem 5.4.0 for Intel X86 EM64T Linux

User input:
--------------------------------------------------------------
$molecule
0 1
C	-0.248806	-3.887800	0.680396
C	0.225147	-3.701456	-0.621614
C	0.370780	-2.345170	-1.019896
H	0.466300	-4.545233	-1.285337
C	0.000000	-1.450135	0.000000
S	-0.522786	-2.321334	1.435271
C	0.865597	-1.934439	-2.378891
H	1.092567	-2.819799	-3.003720
H	1.791940	-1.326210	-2.313975
H	0.114772	-1.325374	-2.924390
H	-0.448750	-4.815326	1.228514
C	0.000000	0.000000	0.000000
C	0.419634	0.732990	1.113020
C	1.111057	1.939951	0.820578
H	0.226746	0.396221	2.142881
C	1.234565	2.155183	-0.563588
S	0.482106	0.842416	-1.464748
C	1.640257	2.863718	1.882380
H	1.417524	2.475067	2.894974
H	1.192042	3.876565	1.808137
H	2.740717	2.989259	1.808230
H	1.710720	2.986508	-1.097114
$end

$rem
JOBTYPE		SP
EXCHANGE	HF
CORRELATION	pRIMP2
BASIS		cc-pvtz
METHOD		rimp2
AUX_BASIS	rimp2-cc-pvtz
SOLVENT_METHOD	PCM
PURECART	11111
SYMMETRY	false
MEM_TOTAL	110000
SCF_CONVERGENCE = 6
THRESH=10
GUI = 2
$end

$solvent
dielectric 4.90
$end
--------------------------------------------------------------

             Standard Nuclear Orientation (Angstroms)
    I     Atom           X                Y                Z
 ----------------------------------------------------------------
    1      C      -0.2488060000    -3.8878000000     0.6803960000
    2      C       0.2251470000    -3.7014560000    -0.6216140000
    3      C       0.3707800000    -2.3451700000    -1.0198960000
    4      H       0.4663000000    -4.5452330000    -1.2853370000
    5      C       0.0000000000    -1.4501350000     0.0000000000
    6      S      -0.5227860000    -2.3213340000     1.4352710000
    7      C       0.8655970000    -1.9344390000    -2.3788910000
    8      H       1.0925670000    -2.8197990000    -3.0037200000
    9      H       1.7919400000    -1.3262100000    -2.3139750000
   10      H       0.1147720000    -1.3253740000    -2.9243900000
   11      H      -0.4487500000    -4.8153260000     1.2285140000
   12      C       0.0000000000     0.0000000000     0.0000000000
   13      C       0.4196340000     0.7329900000     1.1130200000
   14      C       1.1110570000     1.9399510000     0.8205780000
   15      H       0.2267460000     0.3962210000     2.1428810000
   16      C       1.2345650000     2.1551830000    -0.5635880000
   17      S       0.4821060000     0.8424160000    -1.4647480000
   18      C       1.6402570000     2.8637180000     1.8823800000
   19      H       1.4175240000     2.4750670000     2.8949740000
   20      H       1.1920420000     3.8765650000     1.8081370000
   21      H       2.7407170000     2.9892590000     1.8082300000
   22      H       1.7107200000     2.9865080000    -1.0971140000
 ----------------------------------------------------------------

   10   -1179.6634860385      5.83e-07  Convergence criterion met
 Total energy in the final basis set =    -1179.6634860385
        RIMP2         total energy =     -1181.6497670904 a.u.

                    Orbital Energies (a.u.)
 --------------------------------------------------------------

 Alpha MOs
 -- Occupied --
-91.9835 -91.9823 -11.2795 -11.2781 -11.2685 -11.2683 -11.2521 -11.2478
-11.2449 -11.2420 -11.2294 -11.2265  -8.9838  -8.9823  -6.6645  -6.6640
 -6.6634  -6.6633  -6.6627  -6.6621  -1.1822  -1.1488  -1.0424  -1.0232
 -0.9979  -0.9522  -0.9124  -0.8955  -0.7968  -0.7640  -0.7214  -0.6955
 -0.6600  -0.6164  -0.5839  -0.5807  -0.5778  -0.5694  -0.5513  -0.5327
 -0.5246  -0.5205  -0.5117  -0.4963  -0.4820  -0.4648  -0.4493  -0.3685
 -0.3418  -0.3374  -0.2680

          Ground-State Mulliken Net Atomic Charges

     Atom                 Charge (a.u.)
  ----------------------------------------
      1 C                    -0.218292
      2 C                    -0.251556
      3 C                     0.048416
      4 H                     0.185435
      5 C                    -0.037497
      6 S                     0.003532
      7 C                    -0.306428
      8 H                     0.110643
      9 H                     0.120449
     10 H                     0.108777
     11 H                     0.204662
     12 C                     0.009602
     13 C                    -0.217441
     14 C                     0.019057
     15 H                     0.180027
     16 C                    -0.233897
     17 S                     0.024670
     18 C                    -0.268818
     19 H                     0.103023
     20 H                     0.108426
     21 H                     0.107425
     22 H                     0.199788
  ----------------------------------------
  Sum of atomic charges =     0.000000

                    Cartesian Multipole Moments
 -----------------------------------------------------------------
    Charge (ESU x 10^10)
                -0.0000
    Dipole Moment (Debye)
         X       1.6601      Y       0.5096      Z      -0.0794
       Tot       1.7384
    Quadrupole Moments (Debye-Ang)
        XX     -89.0935     XY       3.9870     YY     -72.8551
        XZ      -1.7260     YZ       3.0914     ZZ     -80.6242

 Total job time:  48.03s(wall), 1720.67s(cpu)
        *  Thank you very much for using Q-Chem.  Have a nice day.  *
