 Q-Chem 5.4, Q-Chem, Inc., Pleasanton, CA (2021)
 Q-Chem 5.4.0 for Intel X86 EM64T Linux

User input:
--------------------------------------------------------------
$molecule
0 1
C	0.555670	-3.887800	-0.464838
C	-0.505790	-3.701456	0.425760
C	-0.831053	-2.345170	0.697866
H	-1.046496	-4.545233	0.879984
C	0.000000	-1.450135	0.000000
S	1.170382	-2.321334	-0.981588
C	-1.939074	-1.934439	1.627381
H	-2.448051	-2.819799	2.055015
H	-2.708853	-1.326210	1.107991
H	-1.561590	-1.325374	2.475210
H	1.002886	-4.815326	-0.839549
C	0.000000	0.000000	0.000000
C	0.419634	0.732990	1.113020
C	1.111057	1.939951	0.820578
H	0.226746	0.396221	2.142881
C	1.234565	2.155183	-0.563588
S	0.482106	0.842416	-1.464748
C	1.640257	2.863718	1.882380
H	1.417524	2.475067	2.894974
H	1.192042	3.876565	1.808137
H	2.740717	2.989259	1.808230
H	1.710720	2.986508	-1.097114
$end

$rem
JOBTYPE		SP
EXCHANGE	HF
CORRELATION	pRIMP2
BASIS		cc-pvtz
METHOD		rimp2
AUX_BASIS	rimp2-cc-pvtz
SOLVENT_METHOD	PCM
PURECART	11111
SYMMETRY	false
MEM_TOTAL	110000
SCF_CONVERGENCE = 6
THRESH=10
GUI = 2
$end

$solvent
dielectric 4.90
$end
--------------------------------------------------------------

             Standard Nuclear Orientation (Angstroms)
    I     Atom           X                Y                Z
 ----------------------------------------------------------------
    1      C       0.5556700000    -3.8878000000    -0.4648380000
    2      C      -0.5057900000    -3.7014560000     0.4257600000
    3      C      -0.8310530000    -2.3451700000     0.6978660000
    4      H      -1.0464960000    -4.5452330000     0.8799840000
    5      C       0.0000000000    -1.4501350000     0.0000000000
    6      S       1.1703820000    -2.3213340000    -0.9815880000
    7      C      -1.9390740000    -1.9344390000     1.6273810000
    8      H      -2.4480510000    -2.8197990000     2.0550150000
    9      H      -2.7088530000    -1.3262100000     1.1079910000
   10      H      -1.5615900000    -1.3253740000     2.4752100000
   11      H       1.0028860000    -4.8153260000    -0.8395490000
   12      C       0.0000000000     0.0000000000     0.0000000000
   13      C       0.4196340000     0.7329900000     1.1130200000
   14      C       1.1110570000     1.9399510000     0.8205780000
   15      H       0.2267460000     0.3962210000     2.1428810000
   16      C       1.2345650000     2.1551830000    -0.5635880000
   17      S       0.4821060000     0.8424160000    -1.4647480000
   18      C       1.6402570000     2.8637180000     1.8823800000
   19      H       1.4175240000     2.4750670000     2.8949740000
   20      H       1.1920420000     3.8765650000     1.8081370000
   21      H       2.7407170000     2.9892590000     1.8082300000
   22      H       1.7107200000     2.9865080000    -1.0971140000
 ----------------------------------------------------------------

   10   -1179.6697319834      5.26e-07  Convergence criterion met
 Total energy in the final basis set =    -1179.6697319834
        RIMP2         total energy =     -1181.6522140955 a.u.

                    Orbital Energies (a.u.)
 --------------------------------------------------------------

 Alpha MOs
 -- Occupied --
-91.9863 -91.9838 -11.2765 -11.2756 -11.2712 -11.2671 -11.2530 -11.2476
-11.2462 -11.2408 -11.2301 -11.2282  -8.9860  -8.9834  -6.6669  -6.6664
 -6.6658  -6.6643  -6.6637  -6.6631  -1.1812  -1.1489  -1.0416  -1.0222
 -0.9962  -0.9553  -0.9114  -0.8932  -0.8004  -0.7512  -0.7323  -0.6958
 -0.6596  -0.6164  -0.5862  -0.5799  -0.5697  -0.5657  -0.5510  -0.5349
 -0.5303  -0.5190  -0.5078  -0.4908  -0.4809  -0.4717  -0.4573  -0.3577
 -0.3404  -0.3345  -0.2795

          Ground-State Mulliken Net Atomic Charges

     Atom                 Charge (a.u.)
  ----------------------------------------
      1 C                    -0.223990
      2 C                    -0.248729
      3 C                     0.032308
      4 H                     0.183544
      5 C                    -0.028772
      6 S                     0.024618
      7 C                    -0.289632
      8 H                     0.108226
      9 H                     0.110367
     10 H                     0.105701
     11 H                     0.203174
     12 C                    -0.030093
     13 C                    -0.189641
     14 C                     0.007969
     15 H                     0.192377
     16 C                    -0.216025
     17 S                     0.010426
     18 C                    -0.270255
     19 H                     0.102427
     20 H                     0.108246
     21 H                     0.108061
     22 H                     0.199694
  ----------------------------------------
  Sum of atomic charges =     0.000000

                    Cartesian Multipole Moments
 -----------------------------------------------------------------
    Charge (ESU x 10^10)
                -0.0000
    Dipole Moment (Debye)
         X       0.0330      Y       0.7033      Z       2.4622
       Tot       2.5608
    Quadrupole Moments (Debye-Ang)
        XX     -86.1744     XY       6.6411     YY     -72.5697
        XZ      -2.5606     YZ      -0.5430     ZZ     -83.8252

 Total job time:  51.30s(wall), 1707.18s(cpu)
        *  Thank you very much for using Q-Chem.  Have a nice day.  *
