 Q-Chem 5.4, Q-Chem, Inc., Pleasanton, CA (2021)
 Q-Chem 5.4.0 for Intel X86 EM64T Linux

User input:
--------------------------------------------------------------
$molecule
0 1
C	-0.554267	-3.887800	-0.466510
C	0.507121	-3.701456	0.424173
C	0.831575	-2.345170	0.697244
H	1.048337	-4.545233	0.877789
C	0.000000	-1.450135	0.000000
S	-1.169911	-2.321334	-0.982150
C	1.939374	-1.934439	1.627024
H	2.448894	-2.819799	2.054010
H	1.561545	-1.326210	2.475299
H	2.708773	-1.325374	1.108051
H	-1.000944	-4.815326	-0.841863
C	0.000000	0.000000	0.000000
C	-0.003081	0.844605	1.113020
C	-0.007772	2.235575	0.820578
H	-0.001743	0.456510	2.142881
C	-0.008427	2.483726	-0.563588
S	-0.003691	0.970607	-1.464748
C	-0.011355	3.300181	1.882380
H	-0.009922	2.852233	2.894974
H	-0.905944	3.953225	1.808137
H	0.878901	3.959133	1.808230
H	-0.011727	3.441752	-1.097114
$end

$rem
JOBTYPE		SP
EXCHANGE	HF
CORRELATION	pRIMP2
BASIS		cc-pvtz
METHOD		rimp2
AUX_BASIS	rimp2-cc-pvtz
SOLVENT_METHOD	PCM
PURECART	11111
SYMMETRY	false
MEM_TOTAL	110000
SCF_CONVERGENCE = 6
THRESH=10
GUI = 2
$end

$solvent
dielectric 4.90
$end
--------------------------------------------------------------

             Standard Nuclear Orientation (Angstroms)
    I     Atom           X                Y                Z
 ----------------------------------------------------------------
    1      C      -0.5542670000    -3.8878000000    -0.4665100000
    2      C       0.5071210000    -3.7014560000     0.4241730000
    3      C       0.8315750000    -2.3451700000     0.6972440000
    4      H       1.0483370000    -4.5452330000     0.8777890000
    5      C       0.0000000000    -1.4501350000     0.0000000000
    6      S      -1.1699110000    -2.3213340000    -0.9821500000
    7      C       1.9393740000    -1.9344390000     1.6270240000
    8      H       2.4488940000    -2.8197990000     2.0540100000
    9      H       1.5615450000    -1.3262100000     2.4752990000
   10      H       2.7087730000    -1.3253740000     1.1080510000
   11      H      -1.0009440000    -4.8153260000    -0.8418630000
   12      C       0.0000000000     0.0000000000     0.0000000000
   13      C      -0.0030810000     0.8446050000     1.1130200000
   14      C      -0.0077720000     2.2355750000     0.8205780000
   15      H      -0.0017430000     0.4565100000     2.1428810000
   16      C      -0.0084270000     2.4837260000    -0.5635880000
   17      S      -0.0036910000     0.9706070000    -1.4647480000
   18      C      -0.0113550000     3.3001810000     1.8823800000
   19      H      -0.0099220000     2.8522330000     2.8949740000
   20      H      -0.9059440000     3.9532250000     1.8081370000
   21      H       0.8789010000     3.9591330000     1.8082300000
   22      H      -0.0117270000     3.4417520000    -1.0971140000
 ----------------------------------------------------------------

   10   -1179.6868555498      5.22e-07  Convergence criterion met
 Total energy in the final basis set =    -1179.6868555498
        RIMP2         total energy =     -1181.6650992510 a.u.

                    Orbital Energies (a.u.)
 --------------------------------------------------------------

 Alpha MOs
 -- Occupied --
-91.9863 -91.9858 -11.2815 -11.2761 -11.2728 -11.2644 -11.2536 -11.2517
-11.2432 -11.2406 -11.2295 -11.2294  -8.9858  -8.9855  -6.6667  -6.6664
 -6.6661  -6.6658  -6.6655  -6.6652  -1.1790  -1.1500  -1.0400  -1.0245
 -0.9961  -0.9553  -0.9131  -0.8935  -0.8012  -0.7534  -0.7300  -0.6971
 -0.6620  -0.6158  -0.5855  -0.5803  -0.5701  -0.5652  -0.5517  -0.5348
 -0.5293  -0.5210  -0.5063  -0.4920  -0.4889  -0.4700  -0.4588  -0.3522
 -0.3418  -0.3385  -0.2833

          Ground-State Mulliken Net Atomic Charges

     Atom                 Charge (a.u.)
  ----------------------------------------
      1 C                    -0.213353
      2 C                    -0.249597
      3 C                     0.043303
      4 H                     0.185551
      5 C                    -0.037653
      6 S                     0.020047
      7 C                    -0.285324
      8 H                     0.110776
      9 H                     0.107284
     10 H                     0.113533
     11 H                     0.204762
     12 C                     0.000344
     13 C                    -0.234161
     14 C                     0.017868
     15 H                     0.191981
     16 C                    -0.241451
     17 S                     0.019905
     18 C                    -0.271967
     19 H                     0.102347
     20 H                     0.108842
     21 H                     0.108167
     22 H                     0.198795
  ----------------------------------------
  Sum of atomic charges =     0.000000

                    Cartesian Multipole Moments
 -----------------------------------------------------------------
    Charge (ESU x 10^10)
                -0.0000
    Dipole Moment (Debye)
         X       1.1545      Y       0.2096      Z       2.4492
       Tot       2.7157
    Quadrupole Moments (Debye-Ang)
        XX     -88.8961     XY      -1.7048     YY     -68.5910
        XZ       3.2483     YZ      -0.2928     ZZ     -84.0168

 Total job time:  54.88s(wall), 1777.65s(cpu)
        *  Thank you very much for using Q-Chem.  Have a nice day.  *
