 Q-Chem 5.4, Q-Chem, Inc., Pleasanton, CA (2021)
 Q-Chem 5.4.0 for Intel X86 EM64T Linux

User input:
--------------------------------------------------------------
$molecule
0 1
C	0.124726	-3.887800	0.713644
C	-0.115824	-3.701456	-0.650907
C	-0.188844	-2.345170	-1.068646
H	-0.238841	-4.545233	-1.346284
C	-0.000000	-1.450135	-0.000000
S	0.264890	-2.321334	1.504375
C	-0.439816	-1.934439	-2.492978
H	-0.555669	-2.819799	-3.147582
H	0.394879	-1.326210	-2.899931
H	-1.362799	-1.325374	-2.589982
H	0.225628	-4.815326	1.288299
C	0.000000	0.000000	0.000000
C	0.070542	0.841660	1.113020
C	0.187101	2.227746	0.820578
H	0.038051	0.454925	2.142881
C	0.208076	2.475009	-0.563588
S	0.080917	0.967235	-1.464748
C	0.276318	3.288613	1.882380
H	0.238704	2.842244	2.894974
H	-0.557951	4.017140	1.808137
H	1.220618	3.867466	1.808230
H	0.288286	3.429678	-1.097114
$end

$rem
JOBTYPE		SP
EXCHANGE	HF
CORRELATION	pRIMP2
BASIS		cc-pvtz
METHOD		rimp2
AUX_BASIS	rimp2-cc-pvtz
SOLVENT_METHOD	PCM
PURECART	11111
SYMMETRY	false
MEM_TOTAL	110000
SCF_CONVERGENCE = 6
THRESH=10
GUI = 2
$end

$solvent
dielectric 4.90
$end
--------------------------------------------------------------

             Standard Nuclear Orientation (Angstroms)
    I     Atom           X                Y                Z
 ----------------------------------------------------------------
    1      C       0.1247260000    -3.8878000000     0.7136440000
    2      C      -0.1158240000    -3.7014560000    -0.6509070000
    3      C      -0.1888440000    -2.3451700000    -1.0686460000
    4      H      -0.2388410000    -4.5452330000    -1.3462840000
    5      C       0.0000000000    -1.4501350000     0.0000000000
    6      S       0.2648900000    -2.3213340000     1.5043750000
    7      C      -0.4398160000    -1.9344390000    -2.4929780000
    8      H      -0.5556690000    -2.8197990000    -3.1475820000
    9      H       0.3948790000    -1.3262100000    -2.8999310000
   10      H      -1.3627990000    -1.3253740000    -2.5899820000
   11      H       0.2256280000    -4.8153260000     1.2882990000
   12      C       0.0000000000     0.0000000000     0.0000000000
   13      C       0.0705420000     0.8416600000     1.1130200000
   14      C       0.1871010000     2.2277460000     0.8205780000
   15      H       0.0380510000     0.4549250000     2.1428810000
   16      C       0.2080760000     2.4750090000    -0.5635880000
   17      S       0.0809170000     0.9672350000    -1.4647480000
   18      C       0.2763180000     3.2886130000     1.8823800000
   19      H       0.2387040000     2.8422440000     2.8949740000
   20      H      -0.5579510000     4.0171400000     1.8081370000
   21      H       1.2206180000     3.8674660000     1.8082300000
   22      H       0.2882860000     3.4296780000    -1.0971140000
 ----------------------------------------------------------------

   10   -1179.6864515008      5.45e-07  Convergence criterion met
 Total energy in the final basis set =    -1179.6864515008
        RIMP2         total energy =     -1181.6665143661 a.u.

                    Orbital Energies (a.u.)
 --------------------------------------------------------------

 Alpha MOs
 -- Occupied --
-91.9860 -91.9855 -11.2847 -11.2789 -11.2737 -11.2619 -11.2540 -11.2522
-11.2440 -11.2388 -11.2304 -11.2289  -8.9858  -8.9852  -6.6667  -6.6662
 -6.6661  -6.6656  -6.6655  -6.6649  -1.1809  -1.1502  -1.0414  -1.0258
 -0.9986  -0.9525  -0.9150  -0.8955  -0.7997  -0.7651  -0.7193  -0.6958
 -0.6634  -0.6160  -0.5840  -0.5820  -0.5772  -0.5696  -0.5529  -0.5337
 -0.5233  -0.5205  -0.5108  -0.4976  -0.4911  -0.4681  -0.4514  -0.3697
 -0.3439  -0.3404  -0.2695

          Ground-State Mulliken Net Atomic Charges

     Atom                 Charge (a.u.)
  ----------------------------------------
      1 C                    -0.210526
      2 C                    -0.256874
      3 C                     0.054835
      4 H                     0.185889
      5 C                    -0.025145
      6 S                     0.008974
      7 C                    -0.322723
      8 H                     0.118156
      9 H                     0.113159
     10 H                     0.119493
     11 H                     0.207416
     12 C                     0.062305
     13 C                    -0.280456
     14 C                     0.038039
     15 H                     0.176244
     16 C                    -0.260694
     17 S                     0.023683
     18 C                    -0.271157
     19 H                     0.102903
     20 H                     0.108318
     21 H                     0.108885
     22 H                     0.199275
  ----------------------------------------
  Sum of atomic charges =     0.000000

                    Cartesian Multipole Moments
 -----------------------------------------------------------------
    Charge (ESU x 10^10)
                -0.0000
    Dipole Moment (Debye)
         X      -0.1294      Y       0.0007      Z      -0.1449
       Tot       0.1943
    Quadrupole Moments (Debye-Ang)
        XX     -92.5182     XY       1.3244     YY     -68.5388
        XZ       1.2960     YZ       3.5194     ZZ     -79.9648

 Total job time:  53.25s(wall), 1796.01s(cpu)
        *  Thank you very much for using Q-Chem.  Have a nice day.  *
