 Q-Chem 5.4, Q-Chem, Inc., Pleasanton, CA (2021)
 Q-Chem 5.4.0 for Intel X86 EM64T Linux

User input:
--------------------------------------------------------------
$molecule
0 1
C	0.126876	-3.887800	-0.713264
C	-0.113784	-3.701456	0.651267
C	-0.188043	-2.345170	1.068787
H	-0.236019	-4.545233	1.346782
C	0.000000	-1.450135	0.000000
S	0.265612	-2.321334	-1.504247
C	-0.439357	-1.934439	2.493059
H	-0.554378	-2.819799	3.147809
H	-1.362899	-1.326210	2.589987
H	0.394786	-1.325374	2.899892
H	0.228603	-4.815326	-1.287774
C	0.000000	0.000000	0.000000
C	0.419634	0.732990	1.113020
C	1.111057	1.939951	0.820578
H	0.226746	0.396221	2.142881
C	1.234565	2.155183	-0.563588
S	0.482106	0.842416	-1.464748
C	1.640257	2.863718	1.882380
H	1.417524	2.475067	2.894974
H	1.192042	3.876565	1.808137
H	2.740717	2.989259	1.808230
H	1.710720	2.986508	-1.097114
$end

$rem
JOBTYPE		SP
EXCHANGE	HF
CORRELATION	pRIMP2
BASIS		cc-pvtz
METHOD		rimp2
AUX_BASIS	rimp2-cc-pvtz
SOLVENT_METHOD	PCM
PURECART	11111
SYMMETRY	false
MEM_TOTAL	110000
SCF_CONVERGENCE = 6
THRESH=10
GUI = 2
$end

$solvent
dielectric 4.90
$end
--------------------------------------------------------------

             Standard Nuclear Orientation (Angstroms)
    I     Atom           X                Y                Z
 ----------------------------------------------------------------
    1      C       0.1268760000    -3.8878000000    -0.7132640000
    2      C      -0.1137840000    -3.7014560000     0.6512670000
    3      C      -0.1880430000    -2.3451700000     1.0687870000
    4      H      -0.2360190000    -4.5452330000     1.3467820000
    5      C       0.0000000000    -1.4501350000     0.0000000000
    6      S       0.2656120000    -2.3213340000    -1.5042470000
    7      C      -0.4393570000    -1.9344390000     2.4930590000
    8      H      -0.5543780000    -2.8197990000     3.1478090000
    9      H      -1.3628990000    -1.3262100000     2.5899870000
   10      H       0.3947860000    -1.3253740000     2.8998920000
   11      H       0.2286030000    -4.8153260000    -1.2877740000
   12      C       0.0000000000     0.0000000000     0.0000000000
   13      C       0.4196340000     0.7329900000     1.1130200000
   14      C       1.1110570000     1.9399510000     0.8205780000
   15      H       0.2267460000     0.3962210000     2.1428810000
   16      C       1.2345650000     2.1551830000    -0.5635880000
   17      S       0.4821060000     0.8424160000    -1.4647480000
   18      C       1.6402570000     2.8637180000     1.8823800000
   19      H       1.4175240000     2.4750670000     2.8949740000
   20      H       1.1920420000     3.8765650000     1.8081370000
   21      H       2.7407170000     2.9892590000     1.8082300000
   22      H       1.7107200000     2.9865080000    -1.0971140000
 ----------------------------------------------------------------

   10   -1179.6662064480      5.31e-07  Convergence criterion met
 Total energy in the final basis set =    -1179.6662064480
        RIMP2         total energy =     -1181.6511071613 a.u.

                    Orbital Energies (a.u.)
 --------------------------------------------------------------

 Alpha MOs
 -- Occupied --
-91.9858 -91.9832 -11.2798 -11.2787 -11.2713 -11.2674 -11.2535 -11.2473
-11.2456 -11.2423 -11.2304 -11.2302  -8.9858  -8.9831  -6.6667  -6.6661
 -6.6655  -6.6641  -6.6635  -6.6628  -1.1830  -1.1495  -1.0427  -1.0261
 -0.9957  -0.9559  -0.9135  -0.8950  -0.8012  -0.7554  -0.7284  -0.7014
 -0.6594  -0.6150  -0.5934  -0.5824  -0.5707  -0.5616  -0.5509  -0.5409
 -0.5307  -0.5219  -0.5040  -0.4908  -0.4833  -0.4763  -0.4495  -0.3702
 -0.3476  -0.3358  -0.2672

          Ground-State Mulliken Net Atomic Charges

     Atom                 Charge (a.u.)
  ----------------------------------------
      1 C                    -0.228161
      2 C                    -0.245703
      3 C                     0.047969
      4 H                     0.184482
      5 C                    -0.030788
      6 S                     0.008214
      7 C                    -0.312103
      8 H                     0.117207
      9 H                     0.113325
     10 H                     0.101378
     11 H                     0.205019
     12 C                     0.007754
     13 C                    -0.218087
     14 C                     0.019932
     15 H                     0.194926
     16 C                    -0.228463
     17 S                     0.011532
     18 C                    -0.269267
     19 H                     0.101657
     20 H                     0.109024
     21 H                     0.108507
     22 H                     0.201645
  ----------------------------------------
  Sum of atomic charges =     0.000000

                    Cartesian Multipole Moments
 -----------------------------------------------------------------
    Charge (ESU x 10^10)
                -0.0000
    Dipole Moment (Debye)
         X       0.8764      Y       0.6448      Z       2.9820
       Tot       3.1743
    Quadrupole Moments (Debye-Ang)
        XX     -89.6439     XY       5.4041     YY     -72.3217
        XZ      -0.5630     YZ      -1.3948     ZZ     -80.2698

 Total job time:  48.41s(wall), 1737.59s(cpu)
        *  Thank you very much for using Q-Chem.  Have a nice day.  *
