 Q-Chem 5.4, Q-Chem, Inc., Pleasanton, CA (2021)
 Q-Chem 5.4.0 for Intel X86 EM64T Linux

User input:
--------------------------------------------------------------
$molecule
0 1
C	0.680396	-3.887800	0.248806
C	-0.621614	-3.701456	-0.225147
C	-1.019896	-2.345170	-0.370780
H	-1.285337	-4.545233	-0.466300
C	0.000000	-1.450135	0.000000
S	1.435271	-2.321334	0.522786
C	-2.378891	-1.934439	-0.865597
H	-3.003720	-2.819799	-1.092567
H	-2.313975	-1.326210	-1.791940
H	-2.924390	-1.325374	-0.114772
H	1.228514	-4.815326	0.448750
C	0.000000	0.000000	0.000000
C	0.354153	0.766774	1.113020
C	0.937751	2.029404	0.820578
H	0.191350	0.414475	2.142881
C	1.042030	2.254581	-0.563588
S	0.406851	0.881228	-1.464748
C	1.384426	2.995779	1.882380
H	1.196413	2.589194	2.894974
H	0.849641	3.965707	1.808137
H	2.469756	3.216753	1.808230
H	1.443919	3.124243	-1.097114
$end

$rem
JOBTYPE		SP
EXCHANGE	HF
CORRELATION	pRIMP2
BASIS		cc-pvtz
METHOD		rimp2
AUX_BASIS	rimp2-cc-pvtz
SOLVENT_METHOD	PCM
PURECART	11111
SYMMETRY	false
MEM_TOTAL	110000
SCF_CONVERGENCE = 6
THRESH=10
GUI = 2
$end

$solvent
dielectric 4.90
$end
--------------------------------------------------------------

             Standard Nuclear Orientation (Angstroms)
    I     Atom           X                Y                Z
 ----------------------------------------------------------------
    1      C       0.6803960000    -3.8878000000     0.2488060000
    2      C      -0.6216140000    -3.7014560000    -0.2251470000
    3      C      -1.0198960000    -2.3451700000    -0.3707800000
    4      H      -1.2853370000    -4.5452330000    -0.4663000000
    5      C       0.0000000000    -1.4501350000     0.0000000000
    6      S       1.4352710000    -2.3213340000     0.5227860000
    7      C      -2.3788910000    -1.9344390000    -0.8655970000
    8      H      -3.0037200000    -2.8197990000    -1.0925670000
    9      H      -2.3139750000    -1.3262100000    -1.7919400000
   10      H      -2.9243900000    -1.3253740000    -0.1147720000
   11      H       1.2285140000    -4.8153260000     0.4487500000
   12      C       0.0000000000     0.0000000000     0.0000000000
   13      C       0.3541530000     0.7667740000     1.1130200000
   14      C       0.9377510000     2.0294040000     0.8205780000
   15      H       0.1913500000     0.4144750000     2.1428810000
   16      C       1.0420300000     2.2545810000    -0.5635880000
   17      S       0.4068510000     0.8812280000    -1.4647480000
   18      C       1.3844260000     2.9957790000     1.8823800000
   19      H       1.1964130000     2.5891940000     2.8949740000
   20      H       0.8496410000     3.9657070000     1.8081370000
   21      H       2.4697560000     3.2167530000     1.8082300000
   22      H       1.4439190000     3.1242430000    -1.0971140000
 ----------------------------------------------------------------

   10   -1179.6758801518      5.08e-07  Convergence criterion met
 Total energy in the final basis set =    -1179.6758801518
        RIMP2         total energy =     -1181.6559310016 a.u.

                    Orbital Energies (a.u.)
 --------------------------------------------------------------

 Alpha MOs
 -- Occupied --
-91.9846 -91.9845 -11.2747 -11.2722 -11.2715 -11.2688 -11.2514 -11.2504
-11.2445 -11.2410 -11.2293 -11.2286  -8.9842  -8.9841  -6.6650  -6.6650
 -6.6645  -6.6644  -6.6639  -6.6638  -1.1790  -1.1491  -1.0397  -1.0220
 -0.9975  -0.9523  -0.9135  -0.8920  -0.7987  -0.7558  -0.7284  -0.6925
 -0.6612  -0.6171  -0.5825  -0.5793  -0.5714  -0.5693  -0.5508  -0.5325
 -0.5273  -0.5183  -0.5077  -0.4931  -0.4833  -0.4654  -0.4616  -0.3470
 -0.3370  -0.3288  -0.2958

          Ground-State Mulliken Net Atomic Charges

     Atom                 Charge (a.u.)
  ----------------------------------------
      1 C                    -0.208295
      2 C                    -0.253245
      3 C                     0.051505
      4 H                     0.183857
      5 C                    -0.049369
      6 S                     0.027148
      7 C                    -0.285164
      8 H                     0.107050
      9 H                     0.109115
     10 H                     0.110748
     11 H                     0.203986
     12 C                     0.004374
     13 C                    -0.274885
     14 C                     0.045549
     15 H                     0.187094
     16 C                    -0.235797
     17 S                     0.027449
     18 C                    -0.268923
     19 H                     0.103027
     20 H                     0.107765
     21 H                     0.108227
     22 H                     0.198781
  ----------------------------------------
  Sum of atomic charges =     0.000000

                    Cartesian Multipole Moments
 -----------------------------------------------------------------
    Charge (ESU x 10^10)
                -0.0000
    Dipole Moment (Debye)
         X      -0.5151      Y       0.3475      Z       0.9887
       Tot       1.1677
    Quadrupole Moments (Debye-Ang)
        XX     -84.9570     XY       6.3663     YY     -70.8792
        XZ       2.5992     YZ       1.7749     ZZ     -85.8558

 Total job time:  52.23s(wall), 1851.39s(cpu)
        *  Thank you very much for using Q-Chem.  Have a nice day.  *
