 Q-Chem 5.4, Q-Chem, Inc., Pleasanton, CA (2021)
 Q-Chem 5.4.0 for Intel X86 EM64T Linux

User input:
--------------------------------------------------------------
$molecule
0 1
C	-0.627947	-3.887800	0.361285
C	0.572038	-3.701456	-0.331462
C	0.939610	-2.345170	-0.542953
H	1.183405	-4.545233	-0.684893
C	0.000000	-1.450135	0.000000
S	-1.323052	-2.321334	0.763441
C	2.192207	-1.934439	-1.265941
H	2.767709	-2.819799	-1.598695
H	2.860100	-1.326210	-0.620770
H	1.967682	-1.325374	-2.166438
H	-1.133436	-4.815326	0.652645
C	0.000000	0.000000	0.000000
C	0.285976	0.794723	1.113020
C	0.757308	2.103412	0.820578
H	0.154498	0.429575	2.142881
C	0.841565	2.336821	-0.563588
S	0.328498	0.913334	-1.464748
C	1.118059	3.105040	1.882380
H	0.966197	2.683616	2.894974
H	0.500773	4.024668	1.808137
H	2.180000	3.419766	1.808230
H	1.166129	3.238200	-1.097114
$end

$rem
JOBTYPE		SP
EXCHANGE	HF
CORRELATION	pRIMP2
BASIS		cc-pvtz
METHOD		rimp2
AUX_BASIS	rimp2-cc-pvtz
SOLVENT_METHOD	PCM
PURECART	11111
SYMMETRY	false
MEM_TOTAL	110000
SCF_CONVERGENCE = 6
THRESH=10
GUI = 2
$end

$solvent
dielectric 4.90
$end
--------------------------------------------------------------

             Standard Nuclear Orientation (Angstroms)
    I     Atom           X                Y                Z
 ----------------------------------------------------------------
    1      C      -0.6279470000    -3.8878000000     0.3612850000
    2      C       0.5720380000    -3.7014560000    -0.3314620000
    3      C       0.9396100000    -2.3451700000    -0.5429530000
    4      H       1.1834050000    -4.5452330000    -0.6848930000
    5      C       0.0000000000    -1.4501350000     0.0000000000
    6      S      -1.3230520000    -2.3213340000     0.7634410000
    7      C       2.1922070000    -1.9344390000    -1.2659410000
    8      H       2.7677090000    -2.8197990000    -1.5986950000
    9      H       2.8601000000    -1.3262100000    -0.6207700000
   10      H       1.9676820000    -1.3253740000    -2.1664380000
   11      H      -1.1334360000    -4.8153260000     0.6526450000
   12      C       0.0000000000     0.0000000000     0.0000000000
   13      C       0.2859760000     0.7947230000     1.1130200000
   14      C       0.7573080000     2.1034120000     0.8205780000
   15      H       0.1544980000     0.4295750000     2.1428810000
   16      C       0.8415650000     2.3368210000    -0.5635880000
   17      S       0.3284980000     0.9133340000    -1.4647480000
   18      C       1.1180590000     3.1050400000     1.8823800000
   19      H       0.9661970000     2.6836160000     2.8949740000
   20      H       0.5007730000     4.0246680000     1.8081370000
   21      H       2.1800000000     3.4197660000     1.8082300000
   22      H       1.1661290000     3.2382000000    -1.0971140000
 ----------------------------------------------------------------

   10   -1179.6775582093      5.14e-07  Convergence criterion met
 Total energy in the final basis set =    -1179.6775582093
        RIMP2         total energy =     -1181.6586405514 a.u.

                    Orbital Energies (a.u.)
 --------------------------------------------------------------

 Alpha MOs
 -- Occupied --
-91.9851 -91.9841 -11.2779 -11.2755 -11.2703 -11.2677 -11.2516 -11.2509
-11.2444 -11.2419 -11.2294 -11.2268  -8.9847  -8.9837  -6.6656  -6.6651
 -6.6646  -6.6645  -6.6641  -6.6635  -1.1792  -1.1493  -1.0404  -1.0212
 -0.9978  -0.9535  -0.9128  -0.8928  -0.7983  -0.7577  -0.7269  -0.6950
 -0.6608  -0.6167  -0.5819  -0.5783  -0.5738  -0.5697  -0.5510  -0.5315
 -0.5276  -0.5193  -0.5102  -0.4935  -0.4833  -0.4656  -0.4583  -0.3496
 -0.3419  -0.3319  -0.2876

          Ground-State Mulliken Net Atomic Charges

     Atom                 Charge (a.u.)
  ----------------------------------------
      1 C                    -0.216248
      2 C                    -0.251746
      3 C                     0.052081
      4 H                     0.185011
      5 C                    -0.029637
      6 S                     0.022537
      7 C                    -0.289933
      8 H                     0.108812
      9 H                     0.114329
     10 H                     0.113194
     11 H                     0.203701
     12 C                    -0.036352
     13 C                    -0.221747
     14 C                     0.017706
     15 H                     0.187060
     16 C                    -0.229666
     17 S                     0.023252
     18 C                    -0.269925
     19 H                     0.103066
     20 H                     0.108230
     21 H                     0.107664
     22 H                     0.198611
  ----------------------------------------
  Sum of atomic charges =     0.000000

                    Cartesian Multipole Moments
 -----------------------------------------------------------------
    Charge (ESU x 10^10)
                -0.0000
    Dipole Moment (Debye)
         X       2.0252      Y       0.4601      Z       0.6914
       Tot       2.1889
    Quadrupole Moments (Debye-Ang)
        XX     -86.6832     XY       1.6517     YY     -70.6925
        XZ      -2.5096     YZ       2.1831     ZZ     -84.9006

 Total job time:  49.14s(wall), 1700.04s(cpu)
        *  Thank you very much for using Q-Chem.  Have a nice day.  *
