 Q-Chem 5.4, Q-Chem, Inc., Pleasanton, CA (2021)
 Q-Chem 5.4.0 for Intel X86 EM64T Linux

User input:
--------------------------------------------------------------
$molecule
0 1
C	-0.555670	-3.887800	0.464838
C	0.505790	-3.701456	-0.425760
C	0.831053	-2.345170	-0.697866
H	1.046496	-4.545233	-0.879984
C	0.000000	-1.450135	0.000000
S	-1.170382	-2.321334	0.981588
C	1.939074	-1.934439	-1.627381
H	2.448051	-2.819799	-2.055015
H	2.708853	-1.326210	-1.107991
H	1.561590	-1.325374	-2.475210
H	-1.002886	-4.815326	0.839549
C	0.000000	0.000000	0.000000
C	-0.003081	0.844605	1.113020
C	-0.007772	2.235575	0.820578
H	-0.001743	0.456510	2.142881
C	-0.008427	2.483726	-0.563588
S	-0.003691	0.970607	-1.464748
C	-0.011355	3.300181	1.882380
H	-0.009922	2.852233	2.894974
H	-0.905944	3.953225	1.808137
H	0.878901	3.959133	1.808230
H	-0.011727	3.441752	-1.097114
$end

$rem
JOBTYPE		SP
EXCHANGE	HF
CORRELATION	pRIMP2
BASIS		cc-pvtz
METHOD		rimp2
AUX_BASIS	rimp2-cc-pvtz
SOLVENT_METHOD	PCM
PURECART	11111
SYMMETRY	false
MEM_TOTAL	110000
SCF_CONVERGENCE = 6
THRESH=10
GUI = 2
$end

$solvent
dielectric 4.90
$end
--------------------------------------------------------------

             Standard Nuclear Orientation (Angstroms)
    I     Atom           X                Y                Z
 ----------------------------------------------------------------
    1      C      -0.5556700000    -3.8878000000     0.4648380000
    2      C       0.5057900000    -3.7014560000    -0.4257600000
    3      C       0.8310530000    -2.3451700000    -0.6978660000
    4      H       1.0464960000    -4.5452330000    -0.8799840000
    5      C       0.0000000000    -1.4501350000     0.0000000000
    6      S      -1.1703820000    -2.3213340000     0.9815880000
    7      C       1.9390740000    -1.9344390000    -1.6273810000
    8      H       2.4480510000    -2.8197990000    -2.0550150000
    9      H       2.7088530000    -1.3262100000    -1.1079910000
   10      H       1.5615900000    -1.3253740000    -2.4752100000
   11      H      -1.0028860000    -4.8153260000     0.8395490000
   12      C       0.0000000000     0.0000000000     0.0000000000
   13      C      -0.0030810000     0.8446050000     1.1130200000
   14      C      -0.0077720000     2.2355750000     0.8205780000
   15      H      -0.0017430000     0.4565100000     2.1428810000
   16      C      -0.0084270000     2.4837260000    -0.5635880000
   17      S      -0.0036910000     0.9706070000    -1.4647480000
   18      C      -0.0113550000     3.3001810000     1.8823800000
   19      H      -0.0099220000     2.8522330000     2.8949740000
   20      H      -0.9059440000     3.9532250000     1.8081370000
   21      H       0.8789010000     3.9591330000     1.8082300000
   22      H      -0.0117270000     3.4417520000    -1.0971140000
 ----------------------------------------------------------------

   10   -1179.6869820491      5.17e-07  Convergence criterion met
 Total energy in the final basis set =    -1179.6869820491
        RIMP2         total energy =     -1181.6652698536 a.u.

                    Orbital Energies (a.u.)
 --------------------------------------------------------------

 Alpha MOs
 -- Occupied --
-91.9864 -91.9855 -11.2816 -11.2757 -11.2726 -11.2645 -11.2529 -11.2514
-11.2429 -11.2409 -11.2290 -11.2289  -8.9859  -8.9851  -6.6668  -6.6662
 -6.6660  -6.6656  -6.6655  -6.6648  -1.1789  -1.1499  -1.0400  -1.0233
 -0.9981  -0.9531  -0.9141  -0.8932  -0.7997  -0.7599  -0.7242  -0.6945
 -0.6624  -0.6164  -0.5829  -0.5780  -0.5746  -0.5696  -0.5518  -0.5327
 -0.5264  -0.5192  -0.5083  -0.4952  -0.4888  -0.4673  -0.4584  -0.3512
 -0.3431  -0.3377  -0.2832

          Ground-State Mulliken Net Atomic Charges

     Atom                 Charge (a.u.)
  ----------------------------------------
      1 C                    -0.214798
      2 C                    -0.248559
      3 C                     0.030148
      4 H                     0.185533
      5 C                    -0.028523
      6 S                     0.023584
      7 C                    -0.293762
      8 H                     0.110137
      9 H                     0.114626
     10 H                     0.111869
     11 H                     0.204615
     12 C                     0.014921
     13 C                    -0.246747
     14 C                     0.021415
     15 H                     0.187197
     16 C                    -0.241369
     17 S                     0.022906
     18 C                    -0.271373
     19 H                     0.103066
     20 H                     0.108409
     21 H                     0.108057
     22 H                     0.198648
  ----------------------------------------
  Sum of atomic charges =     0.000000

                    Cartesian Multipole Moments
 -----------------------------------------------------------------
    Charge (ESU x 10^10)
                -0.0000
    Dipole Moment (Debye)
         X       1.1560      Y       0.2110      Z       0.4597
       Tot       1.2618
    Quadrupole Moments (Debye-Ang)
        XX     -88.8787     XY      -1.7278     YY     -68.7357
        XZ      -3.3388     YZ       2.5768     ZZ     -83.9110

 Total job time:  51.82s(wall), 1729.55s(cpu)
        *  Thank you very much for using Q-Chem.  Have a nice day.  *
