 Q-Chem 5.4, Q-Chem, Inc., Pleasanton, CA (2021)
 Q-Chem 5.4.0 for Intel X86 EM64T Linux

User input:
--------------------------------------------------------------
$molecule
0 1
C	0.626855	-3.887800	0.363176
C	-0.573074	-3.701456	-0.329669
C	-0.940016	-2.345170	-0.542250
H	-1.184837	-4.545233	-0.682412
C	0.000000	-1.450135	0.000000
S	1.322686	-2.321334	0.764076
C	-2.192440	-1.934439	-1.265537
H	-2.768365	-2.819799	-1.597559
H	-1.967653	-1.326210	-2.166534
H	-2.860032	-1.325374	-0.620843
H	1.131925	-4.815326	0.655262
C	0.000000	0.000000	0.000000
C	0.419634	0.732990	1.113020
C	1.111057	1.939951	0.820578
H	0.226746	0.396221	2.142881
C	1.234565	2.155183	-0.563588
S	0.482106	0.842416	-1.464748
C	1.640257	2.863718	1.882380
H	1.417524	2.475067	2.894974
H	1.192042	3.876565	1.808137
H	2.740717	2.989259	1.808230
H	1.710720	2.986508	-1.097114
$end

$rem
JOBTYPE		SP
EXCHANGE	HF
CORRELATION	pRIMP2
BASIS		cc-pvtz
METHOD		rimp2
AUX_BASIS	rimp2-cc-pvtz
SOLVENT_METHOD	PCM
PURECART	11111
SYMMETRY	false
MEM_TOTAL	110000
SCF_CONVERGENCE = 6
THRESH=10
GUI = 2
$end

$solvent
dielectric 4.90
$end
--------------------------------------------------------------

             Standard Nuclear Orientation (Angstroms)
    I     Atom           X                Y                Z
 ----------------------------------------------------------------
    1      C       0.6268550000    -3.8878000000     0.3631760000
    2      C      -0.5730740000    -3.7014560000    -0.3296690000
    3      C      -0.9400160000    -2.3451700000    -0.5422500000
    4      H      -1.1848370000    -4.5452330000    -0.6824120000
    5      C       0.0000000000    -1.4501350000     0.0000000000
    6      S       1.3226860000    -2.3213340000     0.7640760000
    7      C      -2.1924400000    -1.9344390000    -1.2655370000
    8      H      -2.7683650000    -2.8197990000    -1.5975590000
    9      H      -1.9676530000    -1.3262100000    -2.1665340000
   10      H      -2.8600320000    -1.3253740000    -0.6208430000
   11      H       1.1319250000    -4.8153260000     0.6552620000
   12      C       0.0000000000     0.0000000000     0.0000000000
   13      C       0.4196340000     0.7329900000     1.1130200000
   14      C       1.1110570000     1.9399510000     0.8205780000
   15      H       0.2267460000     0.3962210000     2.1428810000
   16      C       1.2345650000     2.1551830000    -0.5635880000
   17      S       0.4821060000     0.8424160000    -1.4647480000
   18      C       1.6402570000     2.8637180000     1.8823800000
   19      H       1.4175240000     2.4750670000     2.8949740000
   20      H       1.1920420000     3.8765650000     1.8081370000
   21      H       2.7407170000     2.9892590000     1.8082300000
   22      H       1.7107200000     2.9865080000    -1.0971140000
 ----------------------------------------------------------------

   10   -1179.6715479704      5.14e-07  Convergence criterion met
 Total energy in the final basis set =    -1179.6715479704
        RIMP2         total energy =     -1181.6531845230 a.u.

                    Orbital Energies (a.u.)
 --------------------------------------------------------------

 Alpha MOs
 -- Occupied --
-91.9845 -91.9844 -11.2736 -11.2725 -11.2707 -11.2703 -11.2519 -11.2487
-11.2457 -11.2408 -11.2295 -11.2285  -8.9842  -8.9839  -6.6651  -6.6648
 -6.6645  -6.6643  -6.6639  -6.6636  -1.1800  -1.1489  -1.0404  -1.0218
 -0.9981  -0.9516  -0.9138  -0.8920  -0.7982  -0.7576  -0.7273  -0.6919
 -0.6608  -0.6173  -0.5827  -0.5796  -0.5722  -0.5694  -0.5507  -0.5331
 -0.5268  -0.5180  -0.5079  -0.4937  -0.4814  -0.4663  -0.4603  -0.3460
 -0.3384  -0.3368  -0.2882

          Ground-State Mulliken Net Atomic Charges

     Atom                 Charge (a.u.)
  ----------------------------------------
      1 C                    -0.213298
      2 C                    -0.251096
      3 C                     0.042715
      4 H                     0.183704
      5 C                    -0.034471
      6 S                     0.025735
      7 C                    -0.287193
      8 H                     0.107889
      9 H                     0.108556
     10 H                     0.110994
     11 H                     0.203825
     12 C                     0.005504
     13 C                    -0.297337
     14 C                     0.055768
     15 H                     0.189947
     16 C                    -0.233252
     17 S                     0.031641
     18 C                    -0.267948
     19 H                     0.103157
     20 H                     0.107872
     21 H                     0.108334
     22 H                     0.198952
  ----------------------------------------
  Sum of atomic charges =     0.000000

                    Cartesian Multipole Moments
 -----------------------------------------------------------------
    Charge (ESU x 10^10)
                -0.0000
    Dipole Moment (Debye)
         X      -0.1863      Y       0.4220      Z       0.7674
       Tot       0.8954
    Quadrupole Moments (Debye-Ang)
        XX     -85.0205     XY       6.8605     YY     -71.8322
        XZ       3.3826     YZ       2.0761     ZZ     -84.9284

 Total job time:  63.18s(wall), 2643.07s(cpu)
        *  Thank you very much for using Q-Chem.  Have a nice day.  *
