 Q-Chem 5.4, Q-Chem, Inc., Pleasanton, CA (2021)
 Q-Chem 5.4.0 for Intel X86 EM64T Linux

User input:
--------------------------------------------------------------
$molecule
0 1
C	0.626855	-3.887800	0.363176
C	-0.573074	-3.701456	-0.329669
C	-0.940016	-2.345170	-0.542250
H	-1.184837	-4.545233	-0.682412
C	0.000000	-1.450135	0.000000
S	1.322686	-2.321334	0.764076
C	-2.192440	-1.934439	-1.265537
H	-2.768365	-2.819799	-1.597559
H	-1.967653	-1.326210	-2.166534
H	-2.860032	-1.325374	-0.620843
H	1.131925	-4.815326	0.655262
C	0.000000	0.000000	0.000000
C	-0.003081	0.844605	1.113020
C	-0.007772	2.235575	0.820578
H	-0.001743	0.456510	2.142881
C	-0.008427	2.483726	-0.563588
S	-0.003691	0.970607	-1.464748
C	-0.011355	3.300181	1.882380
H	-0.009922	2.852233	2.894974
H	-0.905944	3.953225	1.808137
H	0.878901	3.959133	1.808230
H	-0.011727	3.441752	-1.097114
$end

$rem
JOBTYPE		SP
EXCHANGE	HF
CORRELATION	pRIMP2
BASIS		cc-pvtz
METHOD		rimp2
AUX_BASIS	rimp2-cc-pvtz
SOLVENT_METHOD	PCM
PURECART	11111
SYMMETRY	false
MEM_TOTAL	110000
SCF_CONVERGENCE = 6
THRESH=10
GUI = 2
$end

$solvent
dielectric 4.90
$end
--------------------------------------------------------------

             Standard Nuclear Orientation (Angstroms)
    I     Atom           X                Y                Z
 ----------------------------------------------------------------
    1      C       0.6268550000    -3.8878000000     0.3631760000
    2      C      -0.5730740000    -3.7014560000    -0.3296690000
    3      C      -0.9400160000    -2.3451700000    -0.5422500000
    4      H      -1.1848370000    -4.5452330000    -0.6824120000
    5      C       0.0000000000    -1.4501350000     0.0000000000
    6      S       1.3226860000    -2.3213340000     0.7640760000
    7      C      -2.1924400000    -1.9344390000    -1.2655370000
    8      H      -2.7683650000    -2.8197990000    -1.5975590000
    9      H      -1.9676530000    -1.3262100000    -2.1665340000
   10      H      -2.8600320000    -1.3253740000    -0.6208430000
   11      H       1.1319250000    -4.8153260000     0.6552620000
   12      C       0.0000000000     0.0000000000     0.0000000000
   13      C      -0.0030810000     0.8446050000     1.1130200000
   14      C      -0.0077720000     2.2355750000     0.8205780000
   15      H      -0.0017430000     0.4565100000     2.1428810000
   16      C      -0.0084270000     2.4837260000    -0.5635880000
   17      S      -0.0036910000     0.9706070000    -1.4647480000
   18      C      -0.0113550000     3.3001810000     1.8823800000
   19      H      -0.0099220000     2.8522330000     2.8949740000
   20      H      -0.9059440000     3.9532250000     1.8081370000
   21      H       0.8789010000     3.9591330000     1.8082300000
   22      H      -0.0117270000     3.4417520000    -1.0971140000
 ----------------------------------------------------------------

   10   -1179.6867601196      5.10e-07  Convergence criterion met
 Total energy in the final basis set =    -1179.6867601196
        RIMP2         total energy =     -1181.6646728355 a.u.

                    Orbital Energies (a.u.)
 --------------------------------------------------------------

 Alpha MOs
 -- Occupied --
-91.9862 -91.9856 -11.2806 -11.2748 -11.2726 -11.2648 -11.2531 -11.2512
-11.2426 -11.2413 -11.2290 -11.2289  -8.9856  -8.9851  -6.6665  -6.6660
 -6.6660  -6.6654  -6.6653  -6.6648  -1.1785  -1.1498  -1.0396  -1.0229
 -0.9978  -0.9533  -0.9139  -0.8928  -0.7997  -0.7581  -0.7258  -0.6944
 -0.6623  -0.6165  -0.5826  -0.5783  -0.5732  -0.5696  -0.5517  -0.5323
 -0.5270  -0.5192  -0.5078  -0.4943  -0.4887  -0.4665  -0.4599  -0.3457
 -0.3436  -0.3344  -0.2894

          Ground-State Mulliken Net Atomic Charges

     Atom                 Charge (a.u.)
  ----------------------------------------
      1 C                    -0.214510
      2 C                    -0.248610
      3 C                     0.033233
      4 H                     0.185404
      5 C                    -0.032988
      6 S                     0.025166
      7 C                    -0.287265
      8 H                     0.109162
      9 H                     0.110775
     10 H                     0.112578
     11 H                     0.204418
     12 C                     0.001970
     13 C                    -0.238495
     14 C                     0.019836
     15 H                     0.187585
     16 C                    -0.238892
     17 S                     0.023955
     18 C                    -0.271165
     19 H                     0.103011
     20 H                     0.107979
     21 H                     0.108348
     22 H                     0.198505
  ----------------------------------------
  Sum of atomic charges =     0.000000

                    Cartesian Multipole Moments
 -----------------------------------------------------------------
    Charge (ESU x 10^10)
                -0.0000
    Dipole Moment (Debye)
         X      -1.3153      Y       0.2327      Z       0.6905
       Tot       1.5036
    Quadrupole Moments (Debye-Ang)
        XX     -87.7989     XY       1.8800     YY     -68.7537
        XZ       2.9206     YZ       2.2526     ZZ     -85.0338

 Total job time:  52.50s(wall), 1780.48s(cpu)
        *  Thank you very much for using Q-Chem.  Have a nice day.  *
