 Q-Chem 5.4, Q-Chem, Inc., Pleasanton, CA (2021)
 Q-Chem 5.4.0 for Intel X86 EM64T Linux

User input:
--------------------------------------------------------------
$molecule
0 1
C	0.248806	-3.887800	-0.680396
C	-0.225147	-3.701456	0.621614
C	-0.370780	-2.345170	1.019896
H	-0.466300	-4.545233	1.285337
C	0.000000	-1.450135	0.000000
S	0.522786	-2.321334	-1.435271
C	-0.865597	-1.934439	2.378891
H	-1.092567	-2.819799	3.003720
H	-1.791940	-1.326210	2.313975
H	-0.114772	-1.325374	2.924390
H	0.448750	-4.815326	-1.228514
C	0.000000	0.000000	0.000000
C	-0.003081	0.844605	1.113020
C	-0.007772	2.235575	0.820578
H	-0.001743	0.456510	2.142881
C	-0.008427	2.483726	-0.563588
S	-0.003691	0.970607	-1.464748
C	-0.011355	3.300181	1.882380
H	-0.009922	2.852233	2.894974
H	-0.905944	3.953225	1.808137
H	0.878901	3.959133	1.808230
H	-0.011727	3.441752	-1.097114
$end

$rem
JOBTYPE		SP
EXCHANGE	HF
CORRELATION	pRIMP2
BASIS		cc-pvtz
METHOD		rimp2
AUX_BASIS	rimp2-cc-pvtz
SOLVENT_METHOD	PCM
PURECART	11111
SYMMETRY	false
MEM_TOTAL	110000
SCF_CONVERGENCE = 6
THRESH=10
GUI = 2
$end

$solvent
dielectric 4.90
$end
--------------------------------------------------------------

             Standard Nuclear Orientation (Angstroms)
    I     Atom           X                Y                Z
 ----------------------------------------------------------------
    1      C       0.2488060000    -3.8878000000    -0.6803960000
    2      C      -0.2251470000    -3.7014560000     0.6216140000
    3      C      -0.3707800000    -2.3451700000     1.0198960000
    4      H      -0.4663000000    -4.5452330000     1.2853370000
    5      C       0.0000000000    -1.4501350000     0.0000000000
    6      S       0.5227860000    -2.3213340000    -1.4352710000
    7      C      -0.8655970000    -1.9344390000     2.3788910000
    8      H      -1.0925670000    -2.8197990000     3.0037200000
    9      H      -1.7919400000    -1.3262100000     2.3139750000
   10      H      -0.1147720000    -1.3253740000     2.9243900000
   11      H       0.4487500000    -4.8153260000    -1.2285140000
   12      C       0.0000000000     0.0000000000     0.0000000000
   13      C      -0.0030810000     0.8446050000     1.1130200000
   14      C      -0.0077720000     2.2355750000     0.8205780000
   15      H      -0.0017430000     0.4565100000     2.1428810000
   16      C      -0.0084270000     2.4837260000    -0.5635880000
   17      S      -0.0036910000     0.9706070000    -1.4647480000
   18      C      -0.0113550000     3.3001810000     1.8823800000
   19      H      -0.0099220000     2.8522330000     2.8949740000
   20      H      -0.9059440000     3.9532250000     1.8081370000
   21      H       0.8789010000     3.9591330000     1.8082300000
   22      H      -0.0117270000     3.4417520000    -1.0971140000
 ----------------------------------------------------------------

   10   -1179.6854392339      5.24e-07  Convergence criterion met
 Total energy in the final basis set =    -1179.6854392339
        RIMP2         total energy =     -1181.6651235125 a.u.

                    Orbital Energies (a.u.)
 --------------------------------------------------------------

 Alpha MOs
 -- Occupied --
-91.9863 -91.9862 -11.2841 -11.2791 -11.2732 -11.2640 -11.2540 -11.2522
-11.2444 -11.2390 -11.2314 -11.2295  -8.9860  -8.9859  -6.6670  -6.6668
 -6.6664  -6.6663  -6.6658  -6.6657  -1.1808  -1.1505  -1.0410  -1.0274
 -0.9958  -0.9560  -0.9147  -0.8948  -0.8023  -0.7561  -0.7275  -0.7008
 -0.6621  -0.6150  -0.5909  -0.5821  -0.5702  -0.5629  -0.5514  -0.5396
 -0.5300  -0.5227  -0.5038  -0.4918  -0.4894  -0.4756  -0.4534  -0.3670
 -0.3463  -0.3386  -0.2716

          Ground-State Mulliken Net Atomic Charges

     Atom                 Charge (a.u.)
  ----------------------------------------
      1 C                    -0.212563
      2 C                    -0.254388
      3 C                     0.071873
      4 H                     0.185166
      5 C                    -0.050363
      6 S                     0.011294
      7 C                    -0.310139
      8 H                     0.117278
      9 H                     0.118475
     10 H                     0.105037
     11 H                     0.206677
     12 C                     0.026068
     13 C                    -0.239310
     14 C                     0.021772
     15 H                     0.196248
     16 C                    -0.250027
     17 S                     0.009874
     18 C                    -0.271950
     19 H                     0.101586
     20 H                     0.108708
     21 H                     0.108922
     22 H                     0.199762
  ----------------------------------------
  Sum of atomic charges =     0.000000

                    Cartesian Multipole Moments
 -----------------------------------------------------------------
    Charge (ESU x 10^10)
                -0.0000
    Dipole Moment (Debye)
         X      -0.5269      Y       0.1175      Z       2.8837
       Tot       2.9338
    Quadrupole Moments (Debye-Ang)
        XX     -92.0006     XY       0.7267     YY     -68.2743
        XZ      -2.1829     YZ      -0.9927     ZZ     -80.8321

 Total job time:  50.82s(wall), 1760.55s(cpu)
        *  Thank you very much for using Q-Chem.  Have a nice day.  *
