 Q-Chem 5.4, Q-Chem, Inc., Pleasanton, CA (2021)
 Q-Chem 5.4.0 for Intel X86 EM64T Linux

User input:
--------------------------------------------------------------
$molecule
0 1
C	-0.713644	-3.887800	0.124726
C	0.650907	-3.701456	-0.115824
C	1.068646	-2.345170	-0.188844
H	1.346284	-4.545233	-0.238841
C	0.000000	-1.450135	0.000000
S	-1.504375	-2.321334	0.264890
C	2.492978	-1.934439	-0.439816
H	3.147582	-2.819799	-0.555669
H	2.899931	-1.326210	0.394879
H	2.589982	-1.325374	-1.362799
H	-1.288299	-4.815326	0.225628
C	0.000000	0.000000	0.000000
C	0.729909	0.424971	1.113020
C	1.932179	1.124518	0.820578
H	0.394478	0.229765	2.142881
C	2.146756	1.249161	-0.563588
S	0.838724	0.488500	-1.464748
C	2.852364	1.659924	1.882380
H	2.465145	1.434710	2.894974
H	2.970621	2.761183	1.808137
H	3.868160	1.218416	1.808230
H	2.974781	1.731032	-1.097114
$end

$rem
JOBTYPE		SP
EXCHANGE	HF
CORRELATION	pRIMP2
BASIS		cc-pvtz
METHOD		rimp2
AUX_BASIS	rimp2-cc-pvtz
SOLVENT_METHOD	PCM
PURECART	11111
SYMMETRY	false
MEM_TOTAL	110000
SCF_CONVERGENCE = 6
THRESH=10
GUI = 2
$end

$solvent
dielectric 4.90
$end
--------------------------------------------------------------

             Standard Nuclear Orientation (Angstroms)
    I     Atom           X                Y                Z
 ----------------------------------------------------------------
    1      C      -0.7136440000    -3.8878000000     0.1247260000
    2      C       0.6509070000    -3.7014560000    -0.1158240000
    3      C       1.0686460000    -2.3451700000    -0.1888440000
    4      H       1.3462840000    -4.5452330000    -0.2388410000
    5      C       0.0000000000    -1.4501350000     0.0000000000
    6      S      -1.5043750000    -2.3213340000     0.2648900000
    7      C       2.4929780000    -1.9344390000    -0.4398160000
    8      H       3.1475820000    -2.8197990000    -0.5556690000
    9      H       2.8999310000    -1.3262100000     0.3948790000
   10      H       2.5899820000    -1.3253740000    -1.3627990000
   11      H      -1.2882990000    -4.8153260000     0.2256280000
   12      C       0.0000000000     0.0000000000     0.0000000000
   13      C       0.7299090000     0.4249710000     1.1130200000
   14      C       1.9321790000     1.1245180000     0.8205780000
   15      H       0.3944780000     0.2297650000     2.1428810000
   16      C       2.1467560000     1.2491610000    -0.5635880000
   17      S       0.8387240000     0.4885000000    -1.4647480000
   18      C       2.8523640000     1.6599240000     1.8823800000
   19      H       2.4651450000     1.4347100000     2.8949740000
   20      H       2.9706210000     2.7611830000     1.8081370000
   21      H       3.8681600000     1.2184160000     1.8082300000
   22      H       2.9747810000     1.7310320000    -1.0971140000
 ----------------------------------------------------------------

   11   -1179.6089653226      5.07e-07  Convergence criterion met
 Total energy in the final basis set =    -1179.6089653226
        RIMP2         total energy =     -1181.6092363690 a.u.

                    Orbital Energies (a.u.)
 --------------------------------------------------------------

 Alpha MOs
 -- Occupied --
-91.9821 -91.9743 -11.2886 -11.2754 -11.2666 -11.2604 -11.2531 -11.2514
-11.2391 -11.2369 -11.2321 -11.2200  -8.9827  -8.9744  -6.6634  -6.6626
 -6.6624  -6.6553  -6.6547  -6.6541  -1.1910  -1.1445  -1.0457  -1.0157
 -1.0010  -0.9523  -0.9130  -0.8883  -0.7939  -0.7535  -0.7380  -0.6938
 -0.6544  -0.6218  -0.5864  -0.5836  -0.5741  -0.5653  -0.5474  -0.5365
 -0.5241  -0.5228  -0.5127  -0.4873  -0.4665  -0.4627  -0.4401  -0.3540
 -0.3362  -0.3196  -0.2890

          Ground-State Mulliken Net Atomic Charges

     Atom                 Charge (a.u.)
  ----------------------------------------
      1 C                    -0.226195
      2 C                    -0.258442
      3 C                     0.045898
      4 H                     0.182930
      5 C                     0.002508
      6 S                    -0.005142
      7 C                    -0.336404
      8 H                     0.118085
      9 H                     0.119361
     10 H                     0.119107
     11 H                     0.198532
     12 C                    -0.153980
     13 C                    -0.108973
     14 C                    -0.023859
     15 H                     0.190626
     16 C                    -0.156564
     17 S                     0.036312
     18 C                    -0.267758
     19 H                     0.104625
     20 H                     0.113391
     21 H                     0.104807
     22 H                     0.201134
  ----------------------------------------
  Sum of atomic charges =     0.000000

                    Cartesian Multipole Moments
 -----------------------------------------------------------------
    Charge (ESU x 10^10)
                -0.0000
    Dipole Moment (Debye)
         X       4.4123      Y       0.9306      Z       1.4086
       Tot       4.7243
    Quadrupole Moments (Debye-Ang)
        XX     -77.5448     XY       3.2956     YY     -81.0262
        XZ      -0.4719     YZ       1.1705     ZZ     -85.4683

 Total job time:  55.32s(wall), 1949.42s(cpu)
        *  Thank you very much for using Q-Chem.  Have a nice day.  *
