 Q-Chem 5.4, Q-Chem, Inc., Pleasanton, CA (2021)
 Q-Chem 5.4.0 for Intel X86 EM64T Linux

User input:
--------------------------------------------------------------
$molecule
0 1
C	0.713644	-3.887800	-0.124726
C	-0.650907	-3.701456	0.115824
C	-1.068646	-2.345170	0.188844
H	-1.346284	-4.545233	0.238841
C	0.000000	-1.450135	0.000000
S	1.504375	-2.321334	-0.264890
C	-2.492978	-1.934439	0.439816
H	-3.147582	-2.819799	0.555669
H	-2.899931	-1.326210	-0.394879
H	-2.589982	-1.325374	1.362799
H	1.288299	-4.815326	-0.225628
C	0.000000	0.000000	0.000000
C	0.419634	0.732990	1.113020
C	1.111057	1.939951	0.820578
H	0.226746	0.396221	2.142881
C	1.234565	2.155183	-0.563588
S	0.482106	0.842416	-1.464748
C	1.640257	2.863718	1.882380
H	1.417524	2.475067	2.894974
H	1.192042	3.876565	1.808137
H	2.740717	2.989259	1.808230
H	1.710720	2.986508	-1.097114
$end

$rem
JOBTYPE		SP
EXCHANGE	HF
CORRELATION	pRIMP2
BASIS		cc-pvtz
METHOD		rimp2
AUX_BASIS	rimp2-cc-pvtz
SOLVENT_METHOD	PCM
PURECART	11111
SYMMETRY	false
MEM_TOTAL	110000
SCF_CONVERGENCE = 6
THRESH=10
GUI = 2
$end

$solvent
dielectric 4.90
$end
--------------------------------------------------------------

             Standard Nuclear Orientation (Angstroms)
    I     Atom           X                Y                Z
 ----------------------------------------------------------------
    1      C       0.7136440000    -3.8878000000    -0.1247260000
    2      C      -0.6509070000    -3.7014560000     0.1158240000
    3      C      -1.0686460000    -2.3451700000     0.1888440000
    4      H      -1.3462840000    -4.5452330000     0.2388410000
    5      C       0.0000000000    -1.4501350000     0.0000000000
    6      S       1.5043750000    -2.3213340000    -0.2648900000
    7      C      -2.4929780000    -1.9344390000     0.4398160000
    8      H      -3.1475820000    -2.8197990000     0.5556690000
    9      H      -2.8999310000    -1.3262100000    -0.3948790000
   10      H      -2.5899820000    -1.3253740000     1.3627990000
   11      H       1.2882990000    -4.8153260000    -0.2256280000
   12      C       0.0000000000     0.0000000000     0.0000000000
   13      C       0.4196340000     0.7329900000     1.1130200000
   14      C       1.1110570000     1.9399510000     0.8205780000
   15      H       0.2267460000     0.3962210000     2.1428810000
   16      C       1.2345650000     2.1551830000    -0.5635880000
   17      S       0.4821060000     0.8424160000    -1.4647480000
   18      C       1.6402570000     2.8637180000     1.8823800000
   19      H       1.4175240000     2.4750670000     2.8949740000
   20      H       1.1920420000     3.8765650000     1.8081370000
   21      H       2.7407170000     2.9892590000     1.8082300000
   22      H       1.7107200000     2.9865080000    -1.0971140000
 ----------------------------------------------------------------

   10   -1179.6692757310      5.22e-07  Convergence criterion met
 Total energy in the final basis set =    -1179.6692757310
        RIMP2         total energy =     -1181.6506168006 a.u.

                    Orbital Energies (a.u.)
 --------------------------------------------------------------

 Alpha MOs
 -- Occupied --
-91.9847 -91.9828 -11.2726 -11.2717 -11.2709 -11.2702 -11.2515 -11.2488
-11.2469 -11.2400 -11.2295 -11.2281  -8.9843  -8.9825  -6.6652  -6.6646
 -6.6641  -6.6633  -6.6628  -6.6622  -1.1795  -1.1486  -1.0402  -1.0213
 -0.9965  -0.9534  -0.9120  -0.8921  -0.7988  -0.7509  -0.7329  -0.6931
 -0.6602  -0.6171  -0.5831  -0.5793  -0.5696  -0.5686  -0.5505  -0.5313
 -0.5301  -0.5182  -0.5082  -0.4912  -0.4797  -0.4657  -0.4620  -0.3520
 -0.3346  -0.3190  -0.3008

          Ground-State Mulliken Net Atomic Charges

     Atom                 Charge (a.u.)
  ----------------------------------------
      1 C                    -0.208265
      2 C                    -0.253675
      3 C                     0.059927
      4 H                     0.183193
      5 C                    -0.065767
      6 S                     0.026587
      7 C                    -0.285055
      8 H                     0.106714
      9 H                     0.110591
     10 H                     0.108126
     11 H                     0.203546
     12 C                    -0.028081
     13 C                    -0.211293
     14 C                     0.021765
     15 H                     0.183353
     16 C                    -0.224734
     17 S                     0.025027
     18 C                    -0.269209
     19 H                     0.102880
     20 H                     0.107779
     21 H                     0.107759
     22 H                     0.198830
  ----------------------------------------
  Sum of atomic charges =     0.000000

                    Cartesian Multipole Moments
 -----------------------------------------------------------------
    Charge (ESU x 10^10)
                -0.0000
    Dipole Moment (Debye)
         X      -0.3413      Y       0.5002      Z       1.7964
       Tot       1.8957
    Quadrupole Moments (Debye-Ang)
        XX     -83.6678     XY       7.0956     YY     -72.0941
        XZ      -0.5494     YZ       0.5229     ZZ     -86.3187

 Total job time:  47.91s(wall), 1697.48s(cpu)
        *  Thank you very much for using Q-Chem.  Have a nice day.  *
