 Q-Chem 5.4, Q-Chem, Inc., Pleasanton, CA (2021)
 Q-Chem 5.4.0 for Intel X86 EM64T Linux

User input:
--------------------------------------------------------------
$molecule
0 1
C	0.681143	-3.887800	-0.246754
C	-0.620906	-3.701456	0.227093
C	-1.019618	-2.345170	0.371543
H	-1.284357	-4.545233	0.468992
C	-0.000000	-1.450135	-0.000000
S	1.435522	-2.321334	-0.522097
C	-2.378731	-1.934439	0.866035
H	-3.003272	-2.819799	1.093799
H	-2.924444	-1.326210	0.114688
H	-2.313987	-1.325374	1.791841
H	1.229547	-4.815326	-0.445911
C	0.000000	0.000000	0.000000
C	0.540541	0.648986	1.113020
C	1.431046	1.717546	0.820578
H	0.292104	0.350827	2.142881
C	1.590053	1.908061	-0.563588
S	0.621066	0.745901	-1.464748
C	2.112618	2.535384	1.882380
H	1.825779	2.191315	2.894974
H	1.847090	3.610676	1.808137
H	3.218159	2.467925	1.808230
H	2.203332	2.644073	-1.097114
$end

$rem
JOBTYPE		SP
EXCHANGE	HF
CORRELATION	pRIMP2
BASIS		cc-pvtz
METHOD		rimp2
AUX_BASIS	rimp2-cc-pvtz
SOLVENT_METHOD	PCM
PURECART	11111
SYMMETRY	false
MEM_TOTAL	110000
SCF_CONVERGENCE = 6
THRESH=10
GUI = 2
$end

$solvent
dielectric 4.90
$end
--------------------------------------------------------------

             Standard Nuclear Orientation (Angstroms)
    I     Atom           X                Y                Z
 ----------------------------------------------------------------
    1      C       0.6811430000    -3.8878000000    -0.2467540000
    2      C      -0.6209060000    -3.7014560000     0.2270930000
    3      C      -1.0196180000    -2.3451700000     0.3715430000
    4      H      -1.2843570000    -4.5452330000     0.4689920000
    5      C       0.0000000000    -1.4501350000     0.0000000000
    6      S       1.4355220000    -2.3213340000    -0.5220970000
    7      C      -2.3787310000    -1.9344390000     0.8660350000
    8      H      -3.0032720000    -2.8197990000     1.0937990000
    9      H      -2.9244440000    -1.3262100000     0.1146880000
   10      H      -2.3139870000    -1.3253740000     1.7918410000
   11      H       1.2295470000    -4.8153260000    -0.4459110000
   12      C       0.0000000000     0.0000000000     0.0000000000
   13      C       0.5405410000     0.6489860000     1.1130200000
   14      C       1.4310460000     1.7175460000     0.8205780000
   15      H       0.2921040000     0.3508270000     2.1428810000
   16      C       1.5900530000     1.9080610000    -0.5635880000
   17      S       0.6210660000     0.7459010000    -1.4647480000
   18      C       2.1126180000     2.5353840000     1.8823800000
   19      H       1.8257790000     2.1913150000     2.8949740000
   20      H       1.8470900000     3.6106760000     1.8081370000
   21      H       3.2181590000     2.4679250000     1.8082300000
   22      H       2.2033320000     2.6440730000    -1.0971140000
 ----------------------------------------------------------------

   10   -1179.6557647234      5.95e-07  Convergence criterion met
 Total energy in the final basis set =    -1179.6557647234
        RIMP2         total energy =     -1181.6406673052 a.u.

                    Orbital Energies (a.u.)
 --------------------------------------------------------------

 Alpha MOs
 -- Occupied --
-91.9847 -91.9808 -11.2763 -11.2728 -11.2677 -11.2667 -11.2528 -11.2517
-11.2443 -11.2387 -11.2301 -11.2270  -8.9846  -8.9806  -6.6654  -6.6648
 -6.6643  -6.6614  -6.6609  -6.6603  -1.1821  -1.1477  -1.0418  -1.0199
 -0.9968  -0.9536  -0.9110  -0.8920  -0.7985  -0.7490  -0.7354  -0.6929
 -0.6584  -0.6179  -0.5845  -0.5794  -0.5692  -0.5678  -0.5499  -0.5323
 -0.5309  -0.5174  -0.5085  -0.4902  -0.4742  -0.4671  -0.4602  -0.3563
 -0.3351  -0.3235  -0.2903

          Ground-State Mulliken Net Atomic Charges

     Atom                 Charge (a.u.)
  ----------------------------------------
      1 C                    -0.219448
      2 C                    -0.251265
      3 C                     0.045859
      4 H                     0.182475
      5 C                    -0.052929
      6 S                     0.024732
      7 C                    -0.285989
      8 H                     0.106527
      9 H                     0.109661
     10 H                     0.106357
     11 H                     0.202524
     12 C                    -0.056617
     13 C                    -0.169866
     14 C                     0.006958
     15 H                     0.185227
     16 C                    -0.206752
     17 S                     0.022894
     18 C                    -0.268308
     19 H                     0.102855
     20 H                     0.107906
     21 H                     0.107435
     22 H                     0.199762
  ----------------------------------------
  Sum of atomic charges =     0.000000

                    Cartesian Multipole Moments
 -----------------------------------------------------------------
    Charge (ESU x 10^10)
                -0.0000
    Dipole Moment (Debye)
         X       0.2751      Y       0.7716      Z       2.0731
       Tot       2.2290
    Quadrupole Moments (Debye-Ang)
        XX     -82.3815     XY       7.9145     YY     -74.7718
        XZ      -1.3577     YZ      -0.0148     ZZ     -85.5346

 Total job time:  57.39s(wall), 1850.63s(cpu)
        *  Thank you very much for using Q-Chem.  Have a nice day.  *
