 Q-Chem 5.4, Q-Chem, Inc., Pleasanton, CA (2021)
 Q-Chem 5.4.0 for Intel X86 EM64T Linux

User input:
--------------------------------------------------------------
$molecule
0 1
C	0.361285	-3.887800	0.627947
C	-0.331462	-3.701456	-0.572038
C	-0.542953	-2.345170	-0.939610
H	-0.684893	-4.545233	-1.183405
C	0.000000	-1.450135	0.000000
S	0.763441	-2.321334	1.323052
C	-1.265941	-1.934439	-2.192207
H	-1.598695	-2.819799	-2.767709
H	-0.620770	-1.326210	-2.860100
H	-2.166438	-1.325374	-1.967682
H	0.652645	-4.815326	1.133436
C	0.000000	0.000000	0.000000
C	0.143630	0.832309	1.113020
C	0.380550	2.202961	0.820578
H	0.077556	0.449877	2.142881
C	0.422995	2.447456	-0.563588
S	0.164909	0.956502	-1.464748
C	0.561888	3.252016	1.882380
H	0.485513	2.810624	2.894974
H	-0.205711	4.050482	1.808137
H	1.553045	3.746365	1.808230
H	0.586105	3.391501	-1.097114
$end

$rem
JOBTYPE		SP
EXCHANGE	HF
CORRELATION	pRIMP2
BASIS		cc-pvtz
METHOD		rimp2
AUX_BASIS	rimp2-cc-pvtz
SOLVENT_METHOD	PCM
PURECART	11111
SYMMETRY	false
MEM_TOTAL	110000
SCF_CONVERGENCE = 6
THRESH=10
GUI = 2
$end

$solvent
dielectric 4.90
$end
--------------------------------------------------------------

             Standard Nuclear Orientation (Angstroms)
    I     Atom           X                Y                Z
 ----------------------------------------------------------------
    1      C       0.3612850000    -3.8878000000     0.6279470000
    2      C      -0.3314620000    -3.7014560000    -0.5720380000
    3      C      -0.5429530000    -2.3451700000    -0.9396100000
    4      H      -0.6848930000    -4.5452330000    -1.1834050000
    5      C       0.0000000000    -1.4501350000     0.0000000000
    6      S       0.7634410000    -2.3213340000     1.3230520000
    7      C      -1.2659410000    -1.9344390000    -2.1922070000
    8      H      -1.5986950000    -2.8197990000    -2.7677090000
    9      H      -0.6207700000    -1.3262100000    -2.8601000000
   10      H      -2.1664380000    -1.3253740000    -1.9676820000
   11      H       0.6526450000    -4.8153260000     1.1334360000
   12      C       0.0000000000     0.0000000000     0.0000000000
   13      C       0.1436300000     0.8323090000     1.1130200000
   14      C       0.3805500000     2.2029610000     0.8205780000
   15      H       0.0775560000     0.4498770000     2.1428810000
   16      C       0.4229950000     2.4474560000    -0.5635880000
   17      S       0.1649090000     0.9565020000    -1.4647480000
   18      C       0.5618880000     3.2520160000     1.8823800000
   19      H       0.4855130000     2.8106240000     2.8949740000
   20      H      -0.2057110000     4.0504820000     1.8081370000
   21      H       1.5530450000     3.7463650000     1.8082300000
   22      H       0.5861050000     3.3915010000    -1.0971140000
 ----------------------------------------------------------------

   10   -1179.6858611015      5.41e-07  Convergence criterion met
 Total energy in the final basis set =    -1179.6858611015
        RIMP2         total energy =     -1181.6653263882 a.u.

                    Orbital Energies (a.u.)
 --------------------------------------------------------------

 Alpha MOs
 -- Occupied --
-91.9863 -91.9855 -11.2829 -11.2772 -11.2728 -11.2640 -11.2528 -11.2521
-11.2434 -11.2402 -11.2300 -11.2291  -8.9860  -8.9852  -6.6669  -6.6663
 -6.6661  -6.6657  -6.6656  -6.6649  -1.1802  -1.1501  -1.0408  -1.0246
 -0.9986  -0.9525  -0.9148  -0.8943  -0.7997  -0.7631  -0.7214  -0.6948
 -0.6629  -0.6164  -0.5837  -0.5787  -0.5775  -0.5698  -0.5523  -0.5335
 -0.5248  -0.5197  -0.5093  -0.4970  -0.4895  -0.4683  -0.4549  -0.3619
 -0.3430  -0.3408  -0.2741

          Ground-State Mulliken Net Atomic Charges

     Atom                 Charge (a.u.)
  ----------------------------------------
      1 C                    -0.212408
      2 C                    -0.250857
      3 C                     0.039883
      4 H                     0.185411
      5 C                    -0.025376
      6 S                     0.017029
      7 C                    -0.309335
      8 H                     0.112679
      9 H                     0.112589
     10 H                     0.118486
     11 H                     0.205636
     12 C                     0.050357
     13 C                    -0.288618
     14 C                     0.041227
     15 H                     0.182011
     16 C                    -0.254123
     17 S                     0.027965
     18 C                    -0.271351
     19 H                     0.103099
     20 H                     0.108160
     21 H                     0.109040
     22 H                     0.198493
  ----------------------------------------
  Sum of atomic charges =     0.000000

                    Cartesian Multipole Moments
 -----------------------------------------------------------------
    Charge (ESU x 10^10)
                -0.0000
    Dipole Moment (Debye)
         X      -0.4563      Y       0.1396      Z       0.1083
       Tot       0.4893
    Quadrupole Moments (Debye-Ang)
        XX     -90.7717     XY       3.0029     YY     -68.8855
        XZ       3.1777     YZ       3.1297     ZZ     -81.5704

 Total job time:  53.92s(wall), 1805.72s(cpu)
        *  Thank you very much for using Q-Chem.  Have a nice day.  *
