 Q-Chem 5.4, Q-Chem, Inc., Pleasanton, CA (2021)
 Q-Chem 5.4.0 for Intel X86 EM64T Linux

User input:
--------------------------------------------------------------
$molecule
0 1
C	-0.680396	-3.887800	-0.248806
C	0.621614	-3.701456	0.225147
C	1.019896	-2.345170	0.370780
H	1.285337	-4.545233	0.466300
C	0.000000	-1.450135	0.000000
S	-1.435271	-2.321334	-0.522786
C	2.378891	-1.934439	0.865597
H	3.003720	-2.819799	1.092567
H	2.313975	-1.326210	1.791940
H	2.924390	-1.325374	0.114772
H	-1.228514	-4.815326	-0.448750
C	0.000000	0.000000	0.000000
C	0.419634	0.732990	1.113020
C	1.111057	1.939951	0.820578
H	0.226746	0.396221	2.142881
C	1.234565	2.155183	-0.563588
S	0.482106	0.842416	-1.464748
C	1.640257	2.863718	1.882380
H	1.417524	2.475067	2.894974
H	1.192042	3.876565	1.808137
H	2.740717	2.989259	1.808230
H	1.710720	2.986508	-1.097114
$end

$rem
JOBTYPE		SP
EXCHANGE	HF
CORRELATION	pRIMP2
BASIS		cc-pvtz
METHOD		rimp2
AUX_BASIS	rimp2-cc-pvtz
SOLVENT_METHOD	PCM
PURECART	11111
SYMMETRY	false
MEM_TOTAL	110000
SCF_CONVERGENCE = 6
THRESH=10
GUI = 2
$end

$solvent
dielectric 4.90
$end
--------------------------------------------------------------

             Standard Nuclear Orientation (Angstroms)
    I     Atom           X                Y                Z
 ----------------------------------------------------------------
    1      C      -0.6803960000    -3.8878000000    -0.2488060000
    2      C       0.6216140000    -3.7014560000     0.2251470000
    3      C       1.0198960000    -2.3451700000     0.3707800000
    4      H       1.2853370000    -4.5452330000     0.4663000000
    5      C       0.0000000000    -1.4501350000     0.0000000000
    6      S      -1.4352710000    -2.3213340000    -0.5227860000
    7      C       2.3788910000    -1.9344390000     0.8655970000
    8      H       3.0037200000    -2.8197990000     1.0925670000
    9      H       2.3139750000    -1.3262100000     1.7919400000
   10      H       2.9243900000    -1.3253740000     0.1147720000
   11      H      -1.2285140000    -4.8153260000    -0.4487500000
   12      C       0.0000000000     0.0000000000     0.0000000000
   13      C       0.4196340000     0.7329900000     1.1130200000
   14      C       1.1110570000     1.9399510000     0.8205780000
   15      H       0.2267460000     0.3962210000     2.1428810000
   16      C       1.2345650000     2.1551830000    -0.5635880000
   17      S       0.4821060000     0.8424160000    -1.4647480000
   18      C       1.6402570000     2.8637180000     1.8823800000
   19      H       1.4175240000     2.4750670000     2.8949740000
   20      H       1.1920420000     3.8765650000     1.8081370000
   21      H       2.7407170000     2.9892590000     1.8082300000
   22      H       1.7107200000     2.9865080000    -1.0971140000
 ----------------------------------------------------------------

   10   -1179.6699865477      6.05e-07  Convergence criterion met
 Total energy in the final basis set =    -1179.6699865477
        RIMP2         total energy =     -1181.6532333089 a.u.

                    Orbital Energies (a.u.)
 --------------------------------------------------------------

 Alpha MOs
 -- Occupied --
-91.9846 -91.9815 -11.2735 -11.2717 -11.2712 -11.2704 -11.2517 -11.2514
-11.2465 -11.2412 -11.2300 -11.2280  -8.9843  -8.9813  -6.6651  -6.6646
 -6.6640  -6.6622  -6.6616  -6.6611  -1.1796  -1.1488  -1.0403  -1.0215
 -0.9966  -0.9540  -0.9127  -0.8920  -0.7978  -0.7514  -0.7331  -0.6960
 -0.6599  -0.6169  -0.5834  -0.5801  -0.5714  -0.5669  -0.5504  -0.5326
 -0.5277  -0.5212  -0.5099  -0.4910  -0.4797  -0.4642  -0.4599  -0.3435
 -0.3408  -0.3280  -0.2957

          Ground-State Mulliken Net Atomic Charges

     Atom                 Charge (a.u.)
  ----------------------------------------
      1 C                    -0.211959
      2 C                    -0.254131
      3 C                     0.071314
      4 H                     0.184745
      5 C                    -0.036778
      6 S                     0.018944
      7 C                    -0.286149
      8 H                     0.111533
      9 H                     0.109118
     10 H                     0.114924
     11 H                     0.203117
     12 C                    -0.050037
     13 C                    -0.256918
     14 C                     0.045323
     15 H                     0.191299
     16 C                    -0.233229
     17 S                     0.029184
     18 C                    -0.269206
     19 H                     0.102912
     20 H                     0.108944
     21 H                     0.107359
     22 H                     0.199691
  ----------------------------------------
  Sum of atomic charges =     0.000000

                    Cartesian Multipole Moments
 -----------------------------------------------------------------
    Charge (ESU x 10^10)
                -0.0000
    Dipole Moment (Debye)
         X       2.5747      Y       0.4704      Z       2.0812
       Tot       3.3439
    Quadrupole Moments (Debye-Ang)
        XX     -84.3157     XY       2.7004     YY     -71.9783
        XZ       2.5937     YZ       0.1346     ZZ     -85.8436

 Total job time:  49.13s(wall), 1745.05s(cpu)
        *  Thank you very much for using Q-Chem.  Have a nice day.  *
