 Q-Chem 5.4, Q-Chem, Inc., Pleasanton, CA (2021)
 Q-Chem 5.4.0 for Intel X86 EM64T Linux

User input:
--------------------------------------------------------------
$molecule
0 1
C	0.361285	-3.887800	0.627947
C	-0.331462	-3.701456	-0.572038
C	-0.542953	-2.345170	-0.939610
H	-0.684893	-4.545233	-1.183405
C	0.000000	-1.450135	0.000000
S	0.763441	-2.321334	1.323052
C	-1.265941	-1.934439	-2.192207
H	-1.598695	-2.819799	-2.767709
H	-0.620770	-1.326210	-2.860100
H	-2.166438	-1.325374	-1.967682
H	0.652645	-4.815326	1.133436
C	0.000000	0.000000	0.000000
C	0.645024	0.545262	1.113020
C	1.707554	1.442954	0.820578
H	0.348587	0.294774	2.142881
C	1.897227	1.602964	-0.563588
S	0.741155	0.626722	-1.464748
C	2.520787	2.130014	1.882380
H	2.178559	1.840981	2.894974
H	2.446016	3.235078	1.808137
H	3.597818	1.871604	1.808230
H	2.628997	2.221299	-1.097114
$end

$rem
JOBTYPE		SP
EXCHANGE	HF
CORRELATION	pRIMP2
BASIS		cc-pvtz
METHOD		rimp2
AUX_BASIS	rimp2-cc-pvtz
SOLVENT_METHOD	PCM
PURECART	11111
SYMMETRY	false
MEM_TOTAL	110000
SCF_CONVERGENCE = 6
THRESH=10
GUI = 2
$end

$solvent
dielectric 4.90
$end
--------------------------------------------------------------

             Standard Nuclear Orientation (Angstroms)
    I     Atom           X                Y                Z
 ----------------------------------------------------------------
    1      C       0.3612850000    -3.8878000000     0.6279470000
    2      C      -0.3314620000    -3.7014560000    -0.5720380000
    3      C      -0.5429530000    -2.3451700000    -0.9396100000
    4      H      -0.6848930000    -4.5452330000    -1.1834050000
    5      C       0.0000000000    -1.4501350000     0.0000000000
    6      S       0.7634410000    -2.3213340000     1.3230520000
    7      C      -1.2659410000    -1.9344390000    -2.1922070000
    8      H      -1.5986950000    -2.8197990000    -2.7677090000
    9      H      -0.6207700000    -1.3262100000    -2.8601000000
   10      H      -2.1664380000    -1.3253740000    -1.9676820000
   11      H       0.6526450000    -4.8153260000     1.1334360000
   12      C       0.0000000000     0.0000000000     0.0000000000
   13      C       0.6450240000     0.5452620000     1.1130200000
   14      C       1.7075540000     1.4429540000     0.8205780000
   15      H       0.3485870000     0.2947740000     2.1428810000
   16      C       1.8972270000     1.6029640000    -0.5635880000
   17      S       0.7411550000     0.6267220000    -1.4647480000
   18      C       2.5207870000     2.1300140000     1.8823800000
   19      H       2.1785590000     1.8409810000     2.8949740000
   20      H       2.4460160000     3.2350780000     1.8081370000
   21      H       3.5978180000     1.8716040000     1.8082300000
   22      H       2.6289970000     2.2212990000    -1.0971140000
 ----------------------------------------------------------------

   10   -1179.6391988300      7.26e-07  Convergence criterion met
 Total energy in the final basis set =    -1179.6391988300
        RIMP2         total energy =     -1181.6304244342 a.u.

                    Orbital Energies (a.u.)
 --------------------------------------------------------------

 Alpha MOs
 -- Occupied --
-91.9854 -91.9804 -11.2837 -11.2759 -11.2652 -11.2616 -11.2566 -11.2552
-11.2393 -11.2383 -11.2312 -11.2266  -8.9856  -8.9803  -6.6664  -6.6657
 -6.6653  -6.6612  -6.6606  -6.6599  -1.1877  -1.1470  -1.0447  -1.0211
 -1.0012  -0.9489  -0.9145  -0.8924  -0.7968  -0.7643  -0.7258  -0.6902
 -0.6578  -0.6199  -0.5865  -0.5807  -0.5758  -0.5699  -0.5501  -0.5346
 -0.5278  -0.5162  -0.5078  -0.4958  -0.4730  -0.4680  -0.4526  -0.3579
 -0.3462  -0.3375  -0.2690

          Ground-State Mulliken Net Atomic Charges

     Atom                 Charge (a.u.)
  ----------------------------------------
      1 C                    -0.244580
      2 C                    -0.239765
      3 C                     0.012117
      4 H                     0.182987
      5 C                     0.006581
      6 S                     0.006655
      7 C                    -0.305687
      8 H                     0.110521
      9 H                     0.108353
     10 H                     0.112216
     11 H                     0.201529
     12 C                    -0.064226
     13 C                    -0.216232
     14 C                     0.028011
     15 H                     0.195723
     16 C                    -0.202304
     17 S                     0.050152
     18 C                    -0.265676
     19 H                     0.104085
     20 H                     0.109044
     21 H                     0.108397
     22 H                     0.202098
  ----------------------------------------
  Sum of atomic charges =     0.000000

                    Cartesian Multipole Moments
 -----------------------------------------------------------------
    Charge (ESU x 10^10)
                -0.0000
    Dipole Moment (Debye)
         X       1.4994      Y       1.0284      Z       0.3092
       Tot       1.8443
    Quadrupole Moments (Debye-Ang)
        XX     -83.7933     XY       7.5007     YY     -77.6362
        XZ       3.3195     YZ       2.8569     ZZ     -81.4328

 Total job time:  52.03s(wall), 1905.95s(cpu)
        *  Thank you very much for using Q-Chem.  Have a nice day.  *
