 Q-Chem 5.4, Q-Chem, Inc., Pleasanton, CA (2021)
 Q-Chem 5.4.0 for Intel X86 EM64T Linux

User input:
--------------------------------------------------------------
$molecule
0 1
C	-0.248806	-3.887800	0.680396
C	0.225147	-3.701456	-0.621614
C	0.370780	-2.345170	-1.019896
H	0.466300	-4.545233	-1.285337
C	-0.000000	-1.450135	-0.000000
S	-0.522786	-2.321334	1.435271
C	0.865597	-1.934439	-2.378891
H	1.092567	-2.819799	-3.003720
H	1.791940	-1.326210	-2.313975
H	0.114772	-1.325374	-2.924390
H	-0.448750	-4.815326	1.228514
C	0.000000	0.000000	0.000000
C	0.540541	0.648986	1.113020
C	1.431046	1.717546	0.820578
H	0.292104	0.350827	2.142881
C	1.590053	1.908061	-0.563588
S	0.621066	0.745901	-1.464748
C	2.112618	2.535384	1.882380
H	1.825779	2.191315	2.894974
H	1.847090	3.610676	1.808137
H	3.218159	2.467925	1.808230
H	2.203332	2.644073	-1.097114
$end

$rem
JOBTYPE		SP
EXCHANGE	HF
CORRELATION	pRIMP2
BASIS		cc-pvtz
METHOD		rimp2
AUX_BASIS	rimp2-cc-pvtz
SOLVENT_METHOD	PCM
PURECART	11111
SYMMETRY	false
MEM_TOTAL	110000
SCF_CONVERGENCE = 6
THRESH=10
GUI = 2
$end

$solvent
dielectric 4.90
$end
--------------------------------------------------------------

             Standard Nuclear Orientation (Angstroms)
    I     Atom           X                Y                Z
 ----------------------------------------------------------------
    1      C      -0.2488060000    -3.8878000000     0.6803960000
    2      C       0.2251470000    -3.7014560000    -0.6216140000
    3      C       0.3707800000    -2.3451700000    -1.0198960000
    4      H       0.4663000000    -4.5452330000    -1.2853370000
    5      C       0.0000000000    -1.4501350000     0.0000000000
    6      S      -0.5227860000    -2.3213340000     1.4352710000
    7      C       0.8655970000    -1.9344390000    -2.3788910000
    8      H       1.0925670000    -2.8197990000    -3.0037200000
    9      H       1.7919400000    -1.3262100000    -2.3139750000
   10      H       0.1147720000    -1.3253740000    -2.9243900000
   11      H      -0.4487500000    -4.8153260000     1.2285140000
   12      C       0.0000000000     0.0000000000     0.0000000000
   13      C       0.5405410000     0.6489860000     1.1130200000
   14      C       1.4310460000     1.7175460000     0.8205780000
   15      H       0.2921040000     0.3508270000     2.1428810000
   16      C       1.5900530000     1.9080610000    -0.5635880000
   17      S       0.6210660000     0.7459010000    -1.4647480000
   18      C       2.1126180000     2.5353840000     1.8823800000
   19      H       1.8257790000     2.1913150000     2.8949740000
   20      H       1.8470900000     3.6106760000     1.8081370000
   21      H       3.2181590000     2.4679250000     1.8082300000
   22      H       2.2033320000     2.6440730000    -1.0971140000
 ----------------------------------------------------------------

   10   -1179.6450009393      7.85e-07  Convergence criterion met
 Total energy in the final basis set =    -1179.6450009393
        RIMP2         total energy =     -1181.6359547512 a.u.

                    Orbital Energies (a.u.)
 --------------------------------------------------------------

 Alpha MOs
 -- Occupied --
-91.9824 -91.9798 -11.2800 -11.2736 -11.2732 -11.2650 -11.2525 -11.2496
-11.2436 -11.2407 -11.2298 -11.2245  -8.9830  -8.9799  -6.6637  -6.6631
 -6.6626  -6.6609  -6.6604  -6.6597  -1.1843  -1.1476  -1.0436  -1.0226
 -0.9978  -0.9517  -0.9113  -0.8958  -0.7951  -0.7641  -0.7225  -0.6952
 -0.6580  -0.6172  -0.5852  -0.5816  -0.5775  -0.5692  -0.5505  -0.5330
 -0.5242  -0.5215  -0.5116  -0.4958  -0.4771  -0.4621  -0.4470  -0.3687
 -0.3405  -0.3358  -0.2661

          Ground-State Mulliken Net Atomic Charges

     Atom                 Charge (a.u.)
  ----------------------------------------
      1 C                    -0.224236
      2 C                    -0.251340
      3 C                     0.038194
      4 H                     0.184908
      5 C                    -0.028850
      6 S                    -0.005034
      7 C                    -0.297384
      8 H                     0.107662
      9 H                     0.119171
     10 H                     0.107089
     11 H                     0.203323
     12 C                    -0.021999
     13 C                    -0.184975
     14 C                     0.009209
     15 H                     0.181926
     16 C                    -0.221546
     17 S                     0.033099
     18 C                    -0.267601
     19 H                     0.103050
     20 H                     0.108147
     21 H                     0.106804
     22 H                     0.200382
  ----------------------------------------
  Sum of atomic charges =     0.000000

                    Cartesian Multipole Moments
 -----------------------------------------------------------------
    Charge (ESU x 10^10)
                -0.0000
    Dipole Moment (Debye)
         X       2.1786      Y       0.7934      Z      -0.0827
       Tot       2.3200
    Quadrupole Moments (Debye-Ang)
        XX     -87.0356     XY       4.8135     YY     -75.7405
        XZ      -1.6538     YZ       2.9587     ZZ     -80.6040

 Total job time:  53.12s(wall), 1831.11s(cpu)
        *  Thank you very much for using Q-Chem.  Have a nice day.  *
