 Q-Chem 5.4, Q-Chem, Inc., Pleasanton, CA (2021)
 Q-Chem 5.4.0 for Intel X86 EM64T Linux

User input:
--------------------------------------------------------------
$molecule
0 1
C	-0.713644	-3.887800	0.124726
C	0.650907	-3.701456	-0.115824
C	1.068646	-2.345170	-0.188844
H	1.346284	-4.545233	-0.238841
C	-0.000000	-1.450135	-0.000000
S	-1.504375	-2.321334	0.264890
C	2.492978	-1.934439	-0.439816
H	3.147582	-2.819799	-0.555669
H	2.899931	-1.326210	0.394879
H	2.589982	-1.325374	-1.362799
H	-1.288299	-4.815326	0.225628
C	0.000000	0.000000	0.000000
C	0.540541	0.648986	1.113020
C	1.431046	1.717546	0.820578
H	0.292104	0.350827	2.142881
C	1.590053	1.908061	-0.563588
S	0.621066	0.745901	-1.464748
C	2.112618	2.535384	1.882380
H	1.825779	2.191315	2.894974
H	1.847090	3.610676	1.808137
H	3.218159	2.467925	1.808230
H	2.203332	2.644073	-1.097114
$end

$rem
JOBTYPE		SP
EXCHANGE	HF
CORRELATION	pRIMP2
BASIS		cc-pvtz
METHOD		rimp2
AUX_BASIS	rimp2-cc-pvtz
SOLVENT_METHOD	PCM
PURECART	11111
SYMMETRY	false
MEM_TOTAL	110000
SCF_CONVERGENCE = 6
THRESH=10
GUI = 2
$end

$solvent
dielectric 4.90
$end
--------------------------------------------------------------

             Standard Nuclear Orientation (Angstroms)
    I     Atom           X                Y                Z
 ----------------------------------------------------------------
    1      C      -0.7136440000    -3.8878000000     0.1247260000
    2      C       0.6509070000    -3.7014560000    -0.1158240000
    3      C       1.0686460000    -2.3451700000    -0.1888440000
    4      H       1.3462840000    -4.5452330000    -0.2388410000
    5      C       0.0000000000    -1.4501350000     0.0000000000
    6      S      -1.5043750000    -2.3213340000     0.2648900000
    7      C       2.4929780000    -1.9344390000    -0.4398160000
    8      H       3.1475820000    -2.8197990000    -0.5556690000
    9      H       2.8999310000    -1.3262100000     0.3948790000
   10      H       2.5899820000    -1.3253740000    -1.3627990000
   11      H      -1.2882990000    -4.8153260000     0.2256280000
   12      C       0.0000000000     0.0000000000     0.0000000000
   13      C       0.5405410000     0.6489860000     1.1130200000
   14      C       1.4310460000     1.7175460000     0.8205780000
   15      H       0.2921040000     0.3508270000     2.1428810000
   16      C       1.5900530000     1.9080610000    -0.5635880000
   17      S       0.6210660000     0.7459010000    -1.4647480000
   18      C       2.1126180000     2.5353840000     1.8823800000
   19      H       1.8257790000     2.1913150000     2.8949740000
   20      H       1.8470900000     3.6106760000     1.8081370000
   21      H       3.2181590000     2.4679250000     1.8082300000
   22      H       2.2033320000     2.6440730000    -1.0971140000
 ----------------------------------------------------------------

   10   -1179.6552447242      7.33e-07  Convergence criterion met
 Total energy in the final basis set =    -1179.6552447242
        RIMP2         total energy =     -1181.6429688209 a.u.

                    Orbital Energies (a.u.)
 --------------------------------------------------------------

 Alpha MOs
 -- Occupied --
-91.9843 -91.9795 -11.2763 -11.2739 -11.2670 -11.2665 -11.2531 -11.2521
-11.2470 -11.2397 -11.2305 -11.2254  -8.9841  -8.9793  -6.6650  -6.6643
 -6.6639  -6.6602  -6.6596  -6.6591  -1.1818  -1.1477  -1.0418  -1.0184
 -0.9982  -0.9534  -0.9122  -0.8913  -0.7959  -0.7533  -0.7331  -0.6948
 -0.6581  -0.6181  -0.5815  -0.5809  -0.5728  -0.5689  -0.5496  -0.5322
 -0.5265  -0.5210  -0.5118  -0.4903  -0.4734  -0.4649  -0.4553  -0.3483
 -0.3393  -0.3191  -0.2981

          Ground-State Mulliken Net Atomic Charges

     Atom                 Charge (a.u.)
  ----------------------------------------
      1 C                    -0.217525
      2 C                    -0.254741
      3 C                     0.060625
      4 H                     0.184237
      5 C                    -0.022366
      6 S                     0.012050
      7 C                    -0.299852
      8 H                     0.113614
      9 H                     0.111239
     10 H                     0.114563
     11 H                     0.201389
     12 C                    -0.080970
     13 C                    -0.196753
     14 C                     0.018699
     15 H                     0.185947
     16 C                    -0.210037
     17 S                     0.029257
     18 C                    -0.268125
     19 H                     0.103420
     20 H                     0.108739
     21 H                     0.106633
     22 H                     0.199958
  ----------------------------------------
  Sum of atomic charges =     0.000000

                    Cartesian Multipole Moments
 -----------------------------------------------------------------
    Charge (ESU x 10^10)
                -0.0000
    Dipole Moment (Debye)
         X       3.1422      Y       0.7591      Z       1.2989
       Tot       3.4838
    Quadrupole Moments (Debye-Ang)
        XX     -82.0272     XY       3.4794     YY     -74.8873
        XZ      -0.5137     YZ       1.3080     ZZ     -86.0975

 Total job time:  57.26s(wall), 1877.45s(cpu)
        *  Thank you very much for using Q-Chem.  Have a nice day.  *
