 Q-Chem 5.4, Q-Chem, Inc., Pleasanton, CA (2021)
 Q-Chem 5.4.0 for Intel X86 EM64T Linux

User input:
--------------------------------------------------------------
$molecule
0 1
C	0.466510	-3.887800	-0.554267
C	-0.424173	-3.701456	0.507121
C	-0.697244	-2.345170	0.831575
H	-0.877789	-4.545233	1.048337
C	-0.000000	-1.450135	-0.000000
S	0.982150	-2.321334	-1.169911
C	-1.627024	-1.934439	1.939374
H	-2.054010	-2.819799	2.448894
H	-2.475299	-1.326210	1.561545
H	-1.108051	-1.325374	2.708773
H	0.841863	-4.815326	-1.000944
C	0.000000	0.000000	0.000000
C	0.215623	0.816623	1.113020
C	0.571102	2.161411	0.820578
H	0.116470	0.441406	2.142881
C	0.634696	2.401276	-0.563588
S	0.247646	0.938489	-1.464748
C	0.843182	3.190669	1.882380
H	0.728628	2.757614	2.894974
H	0.148095	4.052998	1.808137
H	1.873652	3.596752	1.808230
H	0.879464	3.327513	-1.097114
$end

$rem
JOBTYPE		SP
EXCHANGE	HF
CORRELATION	pRIMP2
BASIS		cc-pvtz
METHOD		rimp2
AUX_BASIS	rimp2-cc-pvtz
SOLVENT_METHOD	PCM
PURECART	11111
SYMMETRY	false
MEM_TOTAL	110000
SCF_CONVERGENCE = 6
THRESH=10
GUI = 2
$end

$solvent
dielectric 4.90
$end
--------------------------------------------------------------

             Standard Nuclear Orientation (Angstroms)
    I     Atom           X                Y                Z
 ----------------------------------------------------------------
    1      C       0.4665100000    -3.8878000000    -0.5542670000
    2      C      -0.4241730000    -3.7014560000     0.5071210000
    3      C      -0.6972440000    -2.3451700000     0.8315750000
    4      H      -0.8777890000    -4.5452330000     1.0483370000
    5      C       0.0000000000    -1.4501350000     0.0000000000
    6      S       0.9821500000    -2.3213340000    -1.1699110000
    7      C      -1.6270240000    -1.9344390000     1.9393740000
    8      H      -2.0540100000    -2.8197990000     2.4488940000
    9      H      -2.4752990000    -1.3262100000     1.5615450000
   10      H      -1.1080510000    -1.3253740000     2.7087730000
   11      H       0.8418630000    -4.8153260000    -1.0009440000
   12      C       0.0000000000     0.0000000000     0.0000000000
   13      C       0.2156230000     0.8166230000     1.1130200000
   14      C       0.5711020000     2.1614110000     0.8205780000
   15      H       0.1164700000     0.4414060000     2.1428810000
   16      C       0.6346960000     2.4012760000    -0.5635880000
   17      S       0.2476460000     0.9384890000    -1.4647480000
   18      C       0.8431820000     3.1906690000     1.8823800000
   19      H       0.7286280000     2.7576140000     2.8949740000
   20      H       0.1480950000     4.0529980000     1.8081370000
   21      H       1.8736520000     3.5967520000     1.8082300000
   22      H       0.8794640000     3.3275130000    -1.0971140000
 ----------------------------------------------------------------

   10   -1179.6825658766      5.00e-07  Convergence criterion met
 Total energy in the final basis set =    -1179.6825658766
        RIMP2         total energy =     -1181.6622490521 a.u.

                    Orbital Energies (a.u.)
 --------------------------------------------------------------

 Alpha MOs
 -- Occupied --
-91.9867 -91.9859 -11.2816 -11.2774 -11.2709 -11.2660 -11.2526 -11.2511
-11.2429 -11.2423 -11.2297 -11.2297  -8.9863  -8.9855  -6.6672  -6.6667
 -6.6664  -6.6661  -6.6658  -6.6652  -1.1802  -1.1500  -1.0409  -1.0247
 -0.9961  -0.9559  -0.9128  -0.8940  -0.8017  -0.7536  -0.7299  -0.6978
 -0.6615  -0.6157  -0.5874  -0.5808  -0.5700  -0.5643  -0.5517  -0.5366
 -0.5300  -0.5209  -0.5062  -0.4915  -0.4872  -0.4732  -0.4565  -0.3596
 -0.3427  -0.3385  -0.2771

          Ground-State Mulliken Net Atomic Charges

     Atom                 Charge (a.u.)
  ----------------------------------------
      1 C                    -0.216560
      2 C                    -0.249630
      3 C                     0.041499
      4 H                     0.185000
      5 C                    -0.035741
      6 S                     0.018380
      7 C                    -0.293923
      8 H                     0.110837
      9 H                     0.113522
     10 H                     0.106079
     11 H                     0.204713
     12 C                     0.002096
     13 C                    -0.214489
     14 C                     0.011824
     15 H                     0.192360
     16 C                    -0.232435
     17 S                     0.009817
     18 C                    -0.272111
     19 H                     0.102039
     20 H                     0.108445
     21 H                     0.108799
     22 H                     0.199481
  ----------------------------------------
  Sum of atomic charges =     0.000000

                    Cartesian Multipole Moments
 -----------------------------------------------------------------
    Charge (ESU x 10^10)
                -0.0000
    Dipole Moment (Debye)
         X      -0.4453      Y       0.3602      Z       2.6144
       Tot       2.6764
    Quadrupole Moments (Debye-Ang)
        XX     -89.3252     XY       4.1540     YY     -69.5871
        XZ      -2.9203     YZ      -0.6360     ZZ     -82.8199

 Total job time:  68.49s(wall), 2847.76s(cpu)
        *  Thank you very much for using Q-Chem.  Have a nice day.  *
