 Q-Chem 5.4, Q-Chem, Inc., Pleasanton, CA (2021)
 Q-Chem 5.4.0 for Intel X86 EM64T Linux

User input:
--------------------------------------------------------------
$molecule
0 1
C	0.361285	-3.887800	0.627947
C	-0.331462	-3.701456	-0.572038
C	-0.542953	-2.345170	-0.939610
H	-0.684893	-4.545233	-1.183405
C	0.000000	-1.450135	0.000000
S	0.763441	-2.321334	1.323052
C	-1.265941	-1.934439	-2.192207
H	-1.598695	-2.819799	-2.767709
H	-0.620770	-1.326210	-2.860100
H	-2.166438	-1.325374	-1.967682
H	0.652645	-4.815326	1.133436
C	0.000000	0.000000	0.000000
C	0.354153	0.766774	1.113020
C	0.937751	2.029404	0.820578
H	0.191350	0.414475	2.142881
C	1.042030	2.254581	-0.563588
S	0.406851	0.881228	-1.464748
C	1.384426	2.995779	1.882380
H	1.196413	2.589194	2.894974
H	0.849641	3.965707	1.808137
H	2.469756	3.216753	1.808230
H	1.443919	3.124243	-1.097114
$end

$rem
JOBTYPE		SP
EXCHANGE	HF
CORRELATION	pRIMP2
BASIS		cc-pvtz
METHOD		rimp2
AUX_BASIS	rimp2-cc-pvtz
SOLVENT_METHOD	PCM
PURECART	11111
SYMMETRY	false
MEM_TOTAL	110000
SCF_CONVERGENCE = 6
THRESH=10
GUI = 2
$end

$solvent
dielectric 4.90
$end
--------------------------------------------------------------

             Standard Nuclear Orientation (Angstroms)
    I     Atom           X                Y                Z
 ----------------------------------------------------------------
    1      C       0.3612850000    -3.8878000000     0.6279470000
    2      C      -0.3314620000    -3.7014560000    -0.5720380000
    3      C      -0.5429530000    -2.3451700000    -0.9396100000
    4      H      -0.6848930000    -4.5452330000    -1.1834050000
    5      C       0.0000000000    -1.4501350000     0.0000000000
    6      S       0.7634410000    -2.3213340000     1.3230520000
    7      C      -1.2659410000    -1.9344390000    -2.1922070000
    8      H      -1.5986950000    -2.8197990000    -2.7677090000
    9      H      -0.6207700000    -1.3262100000    -2.8601000000
   10      H      -2.1664380000    -1.3253740000    -1.9676820000
   11      H       0.6526450000    -4.8153260000     1.1334360000
   12      C       0.0000000000     0.0000000000     0.0000000000
   13      C       0.3541530000     0.7667740000     1.1130200000
   14      C       0.9377510000     2.0294040000     0.8205780000
   15      H       0.1913500000     0.4144750000     2.1428810000
   16      C       1.0420300000     2.2545810000    -0.5635880000
   17      S       0.4068510000     0.8812280000    -1.4647480000
   18      C       1.3844260000     2.9957790000     1.8823800000
   19      H       1.1964130000     2.5891940000     2.8949740000
   20      H       0.8496410000     3.9657070000     1.8081370000
   21      H       2.4697560000     3.2167530000     1.8082300000
   22      H       1.4439190000     3.1242430000    -1.0971140000
 ----------------------------------------------------------------

   10   -1179.6764815038      5.20e-07  Convergence criterion met
 Total energy in the final basis set =    -1179.6764815038
        RIMP2         total energy =     -1181.6584581700 a.u.

                    Orbital Energies (a.u.)
 --------------------------------------------------------------

 Alpha MOs
 -- Occupied --
-91.9853 -91.9851 -11.2793 -11.2764 -11.2705 -11.2680 -11.2528 -11.2497
-11.2434 -11.2423 -11.2295 -11.2295  -8.9851  -8.9847  -6.6660  -6.6656
 -6.6654  -6.6651  -6.6648  -6.6644  -1.1812  -1.1496  -1.0414  -1.0238
 -0.9990  -0.9517  -0.9147  -0.8939  -0.7989  -0.7631  -0.7223  -0.6936
 -0.6619  -0.6169  -0.5835  -0.5788  -0.5779  -0.5700  -0.5518  -0.5337
 -0.5250  -0.5191  -0.5092  -0.4968  -0.4857  -0.4681  -0.4548  -0.3603
 -0.3430  -0.3412  -0.2731

          Ground-State Mulliken Net Atomic Charges

     Atom                 Charge (a.u.)
  ----------------------------------------
      1 C                    -0.217599
      2 C                    -0.248344
      3 C                     0.036288
      4 H                     0.184718
      5 C                    -0.016642
      6 S                     0.016231
      7 C                    -0.308626
      8 H                     0.112516
      9 H                     0.112092
     10 H                     0.116458
     11 H                     0.204865
     12 C                     0.038432
     13 C                    -0.307411
     14 C                     0.056421
     15 H                     0.184429
     16 C                    -0.251041
     17 S                     0.036770
     18 C                    -0.268658
     19 H                     0.103330
     20 H                     0.108295
     21 H                     0.109111
     22 H                     0.198366
  ----------------------------------------
  Sum of atomic charges =     0.000000

                    Cartesian Multipole Moments
 -----------------------------------------------------------------
    Charge (ESU x 10^10)
                -0.0000
    Dipole Moment (Debye)
         X       0.1112      Y       0.3532      Z       0.1675
       Tot       0.4064
    Quadrupole Moments (Debye-Ang)
        XX     -89.0927     XY       5.4860     YY     -70.8987
        XZ       3.3888     YZ       3.0648     ZZ     -81.5685

 Total job time:  53.95s(wall), 1876.68s(cpu)
        *  Thank you very much for using Q-Chem.  Have a nice day.  *
