 Q-Chem 5.4, Q-Chem, Inc., Pleasanton, CA (2021)
 Q-Chem 5.4.0 for Intel X86 EM64T Linux

User input:
--------------------------------------------------------------
$molecule
0 1
C	0.626855	-3.887800	0.363176
C	-0.573074	-3.701456	-0.329669
C	-0.940016	-2.345170	-0.542250
H	-1.184837	-4.545233	-0.682412
C	-0.000000	-1.450135	-0.000000
S	1.322686	-2.321334	0.764076
C	-2.192440	-1.934439	-1.265537
H	-2.768365	-2.819799	-1.597559
H	-1.967653	-1.326210	-2.166534
H	-2.860032	-1.325374	-0.620843
H	1.131925	-4.815326	0.655262
C	0.000000	0.000000	0.000000
C	0.540541	0.648986	1.113020
C	1.431046	1.717546	0.820578
H	0.292104	0.350827	2.142881
C	1.590053	1.908061	-0.563588
S	0.621066	0.745901	-1.464748
C	2.112618	2.535384	1.882380
H	1.825779	2.191315	2.894974
H	1.847090	3.610676	1.808137
H	3.218159	2.467925	1.808230
H	2.203332	2.644073	-1.097114
$end

$rem
JOBTYPE		SP
EXCHANGE	HF
CORRELATION	pRIMP2
BASIS		cc-pvtz
METHOD		rimp2
AUX_BASIS	rimp2-cc-pvtz
SOLVENT_METHOD	PCM
PURECART	11111
SYMMETRY	false
MEM_TOTAL	110000
SCF_CONVERGENCE = 6
THRESH=10
GUI = 2
$end

$solvent
dielectric 4.90
$end
--------------------------------------------------------------

             Standard Nuclear Orientation (Angstroms)
    I     Atom           X                Y                Z
 ----------------------------------------------------------------
    1      C       0.6268550000    -3.8878000000     0.3631760000
    2      C      -0.5730740000    -3.7014560000    -0.3296690000
    3      C      -0.9400160000    -2.3451700000    -0.5422500000
    4      H      -1.1848370000    -4.5452330000    -0.6824120000
    5      C       0.0000000000    -1.4501350000     0.0000000000
    6      S       1.3226860000    -2.3213340000     0.7640760000
    7      C      -2.1924400000    -1.9344390000    -1.2655370000
    8      H      -2.7683650000    -2.8197990000    -1.5975590000
    9      H      -1.9676530000    -1.3262100000    -2.1665340000
   10      H      -2.8600320000    -1.3253740000    -0.6208430000
   11      H       1.1319250000    -4.8153260000     0.6552620000
   12      C       0.0000000000     0.0000000000     0.0000000000
   13      C       0.5405410000     0.6489860000     1.1130200000
   14      C       1.4310460000     1.7175460000     0.8205780000
   15      H       0.2921040000     0.3508270000     2.1428810000
   16      C       1.5900530000     1.9080610000    -0.5635880000
   17      S       0.6210660000     0.7459010000    -1.4647480000
   18      C       2.1126180000     2.5353840000     1.8823800000
   19      H       1.8257790000     2.1913150000     2.8949740000
   20      H       1.8470900000     3.6106760000     1.8081370000
   21      H       3.2181590000     2.4679250000     1.8082300000
   22      H       2.2033320000     2.6440730000    -1.0971140000
 ----------------------------------------------------------------

   10   -1179.6585491685      5.46e-07  Convergence criterion met
 Total energy in the final basis set =    -1179.6585491685
        RIMP2         total energy =     -1181.6435450624 a.u.

                    Orbital Energies (a.u.)
 --------------------------------------------------------------

 Alpha MOs
 -- Occupied --
-91.9841 -91.9827 -11.2759 -11.2720 -11.2681 -11.2679 -11.2528 -11.2498
-11.2454 -11.2396 -11.2300 -11.2275  -8.9840  -8.9823  -6.6648  -6.6642
 -6.6637  -6.6632  -6.6626  -6.6620  -1.1821  -1.1480  -1.0415  -1.0206
 -0.9989  -0.9506  -0.9137  -0.8915  -0.7972  -0.7574  -0.7290  -0.6906
 -0.6594  -0.6183  -0.5831  -0.5802  -0.5716  -0.5693  -0.5499  -0.5335
 -0.5274  -0.5170  -0.5081  -0.4930  -0.4756  -0.4663  -0.4602  -0.3477
 -0.3377  -0.3351  -0.2866

          Ground-State Mulliken Net Atomic Charges

     Atom                 Charge (a.u.)
  ----------------------------------------
      1 C                    -0.219493
      2 C                    -0.249019
      3 C                     0.038927
      4 H                     0.183069
      5 C                    -0.029728
      6 S                     0.022288
      7 C                    -0.288564
      8 H                     0.107878
      9 H                     0.108008
     10 H                     0.110479
     11 H                     0.203119
     12 C                    -0.020677
     13 C                    -0.283746
     14 C                     0.053930
     15 H                     0.192434
     16 C                    -0.218501
     17 S                     0.036511
     18 C                    -0.266331
     19 H                     0.103314
     20 H                     0.108046
     21 H                     0.108034
     22 H                     0.200022
  ----------------------------------------
  Sum of atomic charges =     0.000000

                    Cartesian Multipole Moments
 -----------------------------------------------------------------
    Charge (ESU x 10^10)
                -0.0000
    Dipole Moment (Debye)
         X       0.3196      Y       0.5919      Z       0.8131
       Tot       1.0552
    Quadrupole Moments (Debye-Ang)
        XX     -83.1000     XY       7.7975     YY     -74.1538
        XZ       3.4033     YZ       1.9655     ZZ     -84.7962

 Total job time:  61.18s(wall), 2290.64s(cpu)
        *  Thank you very much for using Q-Chem.  Have a nice day.  *
