 Q-Chem 5.4, Q-Chem, Inc., Pleasanton, CA (2021)
 Q-Chem 5.4.0 for Intel X86 EM64T Linux

User input:
--------------------------------------------------------------
$molecule
0 1
C	0.361285	-3.887800	0.627947
C	-0.331462	-3.701456	-0.572038
C	-0.542953	-2.345170	-0.939610
H	-0.684893	-4.545233	-1.183405
C	-0.000000	-1.450135	-0.000000
S	0.763441	-2.321334	1.323052
C	-1.265941	-1.934439	-2.192207
H	-1.598695	-2.819799	-2.767709
H	-0.620770	-1.326210	-2.860100
H	-2.166438	-1.325374	-1.967682
H	0.652645	-4.815326	1.133436
C	0.000000	0.000000	0.000000
C	0.070542	0.841660	1.113020
C	0.187101	2.227746	0.820578
H	0.038051	0.454925	2.142881
C	0.208076	2.475009	-0.563588
S	0.080917	0.967235	-1.464748
C	0.276318	3.288613	1.882380
H	0.238704	2.842244	2.894974
H	-0.557951	4.017140	1.808137
H	1.220618	3.867466	1.808230
H	0.288286	3.429678	-1.097114
$end

$rem
JOBTYPE		SP
EXCHANGE	HF
CORRELATION	pRIMP2
BASIS		cc-pvtz
METHOD		rimp2
AUX_BASIS	rimp2-cc-pvtz
SOLVENT_METHOD	PCM
PURECART	11111
SYMMETRY	false
MEM_TOTAL	110000
SCF_CONVERGENCE = 6
THRESH=10
GUI = 2
$end

$solvent
dielectric 4.90
$end
--------------------------------------------------------------

             Standard Nuclear Orientation (Angstroms)
    I     Atom           X                Y                Z
 ----------------------------------------------------------------
    1      C       0.3612850000    -3.8878000000     0.6279470000
    2      C      -0.3314620000    -3.7014560000    -0.5720380000
    3      C      -0.5429530000    -2.3451700000    -0.9396100000
    4      H      -0.6848930000    -4.5452330000    -1.1834050000
    5      C       0.0000000000    -1.4501350000     0.0000000000
    6      S       0.7634410000    -2.3213340000     1.3230520000
    7      C      -1.2659410000    -1.9344390000    -2.1922070000
    8      H      -1.5986950000    -2.8197990000    -2.7677090000
    9      H      -0.6207700000    -1.3262100000    -2.8601000000
   10      H      -2.1664380000    -1.3253740000    -1.9676820000
   11      H       0.6526450000    -4.8153260000     1.1334360000
   12      C       0.0000000000     0.0000000000     0.0000000000
   13      C       0.0705420000     0.8416600000     1.1130200000
   14      C       0.1871010000     2.2277460000     0.8205780000
   15      H       0.0380510000     0.4549250000     2.1428810000
   16      C       0.2080760000     2.4750090000    -0.5635880000
   17      S       0.0809170000     0.9672350000    -1.4647480000
   18      C       0.2763180000     3.2886130000     1.8823800000
   19      H       0.2387040000     2.8422440000     2.8949740000
   20      H      -0.5579510000     4.0171400000     1.8081370000
   21      H       1.2206180000     3.8674660000     1.8082300000
   22      H       0.2882860000     3.4296780000    -1.0971140000
 ----------------------------------------------------------------

   10   -1179.6868785710      5.40e-07  Convergence criterion met
 Total energy in the final basis set =    -1179.6868785710
        RIMP2         total energy =     -1181.6661124247 a.u.

                    Orbital Energies (a.u.)
 --------------------------------------------------------------

 Alpha MOs
 -- Occupied --
-91.9864 -91.9855 -11.2834 -11.2775 -11.2730 -11.2634 -11.2531 -11.2519
-11.2435 -11.2398 -11.2299 -11.2290  -8.9860  -8.9852  -6.6670  -6.6664
 -6.6661  -6.6658  -6.6655  -6.6649  -1.1801  -1.1501  -1.0408  -1.0246
 -0.9985  -0.9527  -0.9147  -0.8944  -0.7998  -0.7631  -0.7213  -0.6950
 -0.6630  -0.6163  -0.5837  -0.5787  -0.5773  -0.5697  -0.5523  -0.5334
 -0.5249  -0.5198  -0.5094  -0.4969  -0.4899  -0.4682  -0.4547  -0.3625
 -0.3431  -0.3404  -0.2741

          Ground-State Mulliken Net Atomic Charges

     Atom                 Charge (a.u.)
  ----------------------------------------
      1 C                    -0.212623
      2 C                    -0.251023
      3 C                     0.038856
      4 H                     0.185561
      5 C                    -0.026703
      6 S                     0.017265
      7 C                    -0.309556
      8 H                     0.112730
      9 H                     0.112435
     10 H                     0.119133
     11 H                     0.205717
     12 C                     0.047575
     13 C                    -0.274002
     14 C                     0.032616
     15 H                     0.181805
     16 C                    -0.251530
     17 S                     0.024580
     18 C                    -0.271714
     19 H                     0.103116
     20 H                     0.108169
     21 H                     0.108826
     22 H                     0.198764
  ----------------------------------------
  Sum of atomic charges =     0.000000

                    Cartesian Multipole Moments
 -----------------------------------------------------------------
    Charge (ESU x 10^10)
                -0.0000
    Dipole Moment (Debye)
         X      -0.6245      Y       0.1160      Z       0.0941
       Tot       0.6422
    Quadrupole Moments (Debye-Ang)
        XX     -91.0177     XY       2.0677     YY     -68.6454
        XZ       3.0817     YZ       3.1300     ZZ     -81.5665

 Total job time:  56.24s(wall), 1831.80s(cpu)
        *  Thank you very much for using Q-Chem.  Have a nice day.  *
