 Q-Chem 5.4, Q-Chem, Inc., Pleasanton, CA (2021)
 Q-Chem 5.4.0 for Intel X86 EM64T Linux

User input:
--------------------------------------------------------------
$molecule
0 1
C	0.713264	-3.887800	0.126876
C	-0.651267	-3.701456	-0.113784
C	-1.068787	-2.345170	-0.188043
H	-1.346782	-4.545233	-0.236019
C	0.000000	-1.450135	0.000000
S	1.504247	-2.321334	0.265612
C	-2.493059	-1.934439	-0.439357
H	-3.147809	-2.819799	-0.554378
H	-2.589987	-1.326210	-1.362899
H	-2.899892	-1.325374	0.394786
H	1.287774	-4.815326	0.228603
C	0.000000	0.000000	0.000000
C	0.645024	0.545262	1.113020
C	1.707554	1.442954	0.820578
H	0.348587	0.294774	2.142881
C	1.897227	1.602964	-0.563588
S	0.741155	0.626722	-1.464748
C	2.520787	2.130014	1.882380
H	2.178559	1.840981	2.894974
H	2.446016	3.235078	1.808137
H	3.597818	1.871604	1.808230
H	2.628997	2.221299	-1.097114
$end

$rem
JOBTYPE		SP
EXCHANGE	HF
CORRELATION	pRIMP2
BASIS		cc-pvtz
METHOD		rimp2
AUX_BASIS	rimp2-cc-pvtz
SOLVENT_METHOD	PCM
PURECART	11111
SYMMETRY	false
MEM_TOTAL	110000
SCF_CONVERGENCE = 6
THRESH=10
GUI = 2
$end

$solvent
dielectric 4.90
$end
--------------------------------------------------------------

             Standard Nuclear Orientation (Angstroms)
    I     Atom           X                Y                Z
 ----------------------------------------------------------------
    1      C       0.7132640000    -3.8878000000     0.1268760000
    2      C      -0.6512670000    -3.7014560000    -0.1137840000
    3      C      -1.0687870000    -2.3451700000    -0.1880430000
    4      H      -1.3467820000    -4.5452330000    -0.2360190000
    5      C       0.0000000000    -1.4501350000     0.0000000000
    6      S       1.5042470000    -2.3213340000     0.2656120000
    7      C      -2.4930590000    -1.9344390000    -0.4393570000
    8      H      -3.1478090000    -2.8197990000    -0.5543780000
    9      H      -2.5899870000    -1.3262100000    -1.3628990000
   10      H      -2.8998920000    -1.3253740000     0.3947860000
   11      H       1.2877740000    -4.8153260000     0.2286030000
   12      C       0.0000000000     0.0000000000     0.0000000000
   13      C       0.6450240000     0.5452620000     1.1130200000
   14      C       1.7075540000     1.4429540000     0.8205780000
   15      H       0.3485870000     0.2947740000     2.1428810000
   16      C       1.8972270000     1.6029640000    -0.5635880000
   17      S       0.7411550000     0.6267220000    -1.4647480000
   18      C       2.5207870000     2.1300140000     1.8823800000
   19      H       2.1785590000     1.8409810000     2.8949740000
   20      H       2.4460160000     3.2350780000     1.8081370000
   21      H       3.5978180000     1.8716040000     1.8082300000
   22      H       2.6289970000     2.2212990000    -1.0971140000
 ----------------------------------------------------------------

   10   -1179.6398275608      6.47e-07  Convergence criterion met
 Total energy in the final basis set =    -1179.6398275608
        RIMP2         total energy =     -1181.6281593131 a.u.

                    Orbital Energies (a.u.)
 --------------------------------------------------------------

 Alpha MOs
 -- Occupied --
-91.9827 -91.9783 -11.2827 -11.2701 -11.2671 -11.2585 -11.2564 -11.2528
-11.2430 -11.2376 -11.2305 -11.2261  -8.9829  -8.9784  -6.6637  -6.6630
 -6.6626  -6.6593  -6.6587  -6.6581  -1.1848  -1.1466  -1.0426  -1.0184
 -0.9990  -0.9505  -0.9125  -0.8907  -0.7964  -0.7525  -0.7352  -0.6895
 -0.6576  -0.6201  -0.5844  -0.5800  -0.5695  -0.5687  -0.5487  -0.5335
 -0.5292  -0.5160  -0.5081  -0.4908  -0.4675  -0.4631  -0.4618  -0.3557
 -0.3313  -0.3179  -0.2968

          Ground-State Mulliken Net Atomic Charges

     Atom                 Charge (a.u.)
  ----------------------------------------
      1 C                    -0.216685
      2 C                    -0.252397
      3 C                     0.051520
      4 H                     0.181913
      5 C                    -0.055452
      6 S                     0.014412
      7 C                    -0.285666
      8 H                     0.106521
      9 H                     0.108700
     10 H                     0.108812
     11 H                     0.202487
     12 C                    -0.069329
     13 C                    -0.202249
     14 C                     0.022700
     15 H                     0.187256
     16 C                    -0.193281
     17 S                     0.036957
     18 C                    -0.266230
     19 H                     0.103401
     20 H                     0.108096
     21 H                     0.107192
     22 H                     0.201324
  ----------------------------------------
  Sum of atomic charges =     0.000000

                    Cartesian Multipole Moments
 -----------------------------------------------------------------
    Charge (ESU x 10^10)
                -0.0000
    Dipole Moment (Debye)
         X       0.7305      Y       0.6832      Z       1.3620
       Tot       1.6898
    Quadrupole Moments (Debye-Ang)
        XX     -79.5676     XY       8.3974     YY     -76.7137
        XZ       1.7121     YZ       1.1285     ZZ     -85.9253

 Total job time:  53.36s(wall), 1847.33s(cpu)
        *  Thank you very much for using Q-Chem.  Have a nice day.  *
