 Q-Chem 5.4, Q-Chem, Inc., Pleasanton, CA (2021)
 Q-Chem 5.4.0 for Intel X86 EM64T Linux

User input:
--------------------------------------------------------------
$molecule
0 1
C	0.246754	-3.887800	0.681143
C	-0.227093	-3.701456	-0.620906
C	-0.371543	-2.345170	-1.019618
H	-0.468992	-4.545233	-1.284357
C	-0.000000	-1.450135	-0.000000
S	0.522097	-2.321334	1.435522
C	-0.866035	-1.934439	-2.378731
H	-1.093799	-2.819799	-3.003272
H	-0.114688	-1.326210	-2.924444
H	-1.791841	-1.325374	-2.313987
H	0.445911	-4.815326	1.229547
C	0.000000	0.000000	0.000000
C	0.215623	0.816623	1.113020
C	0.571102	2.161411	0.820578
H	0.116470	0.441406	2.142881
C	0.634696	2.401276	-0.563588
S	0.247646	0.938489	-1.464748
C	0.843182	3.190669	1.882380
H	0.728628	2.757614	2.894974
H	0.148095	4.052998	1.808137
H	1.873652	3.596752	1.808230
H	0.879464	3.327513	-1.097114
$end

$rem
JOBTYPE		SP
EXCHANGE	HF
CORRELATION	pRIMP2
BASIS		cc-pvtz
METHOD		rimp2
AUX_BASIS	rimp2-cc-pvtz
SOLVENT_METHOD	PCM
PURECART	11111
SYMMETRY	false
MEM_TOTAL	110000
SCF_CONVERGENCE = 6
THRESH=10
GUI = 2
$end

$solvent
dielectric 4.90
$end
--------------------------------------------------------------

             Standard Nuclear Orientation (Angstroms)
    I     Atom           X                Y                Z
 ----------------------------------------------------------------
    1      C       0.2467540000    -3.8878000000     0.6811430000
    2      C      -0.2270930000    -3.7014560000    -0.6209060000
    3      C      -0.3715430000    -2.3451700000    -1.0196180000
    4      H      -0.4689920000    -4.5452330000    -1.2843570000
    5      C       0.0000000000    -1.4501350000     0.0000000000
    6      S       0.5220970000    -2.3213340000     1.4355220000
    7      C      -0.8660350000    -1.9344390000    -2.3787310000
    8      H      -1.0937990000    -2.8197990000    -3.0032720000
    9      H      -0.1146880000    -1.3262100000    -2.9244440000
   10      H      -1.7918410000    -1.3253740000    -2.3139870000
   11      H       0.4459110000    -4.8153260000     1.2295470000
   12      C       0.0000000000     0.0000000000     0.0000000000
   13      C       0.2156230000     0.8166230000     1.1130200000
   14      C       0.5711020000     2.1614110000     0.8205780000
   15      H       0.1164700000     0.4414060000     2.1428810000
   16      C       0.6346960000     2.4012760000    -0.5635880000
   17      S       0.2476460000     0.9384890000    -1.4647480000
   18      C       0.8431820000     3.1906690000     1.8823800000
   19      H       0.7286280000     2.7576140000     2.8949740000
   20      H       0.1480950000     4.0529980000     1.8081370000
   21      H       1.8736520000     3.5967520000     1.8082300000
   22      H       0.8794640000     3.3275130000    -1.0971140000
 ----------------------------------------------------------------

   10   -1179.6832920158      5.35e-07  Convergence criterion met
 Total energy in the final basis set =    -1179.6832920158
        RIMP2         total energy =     -1181.6639011159 a.u.

                    Orbital Energies (a.u.)
 --------------------------------------------------------------

 Alpha MOs
 -- Occupied --
-91.9858 -91.9855 -11.2829 -11.2779 -11.2725 -11.2642 -11.2525 -11.2524
-11.2434 -11.2405 -11.2301 -11.2292  -8.9855  -8.9852  -6.6664  -6.6661
 -6.6659  -6.6656  -6.6652  -6.6649  -1.1809  -1.1501  -1.0413  -1.0251
 -0.9988  -0.9523  -0.9149  -0.8949  -0.7995  -0.7643  -0.7204  -0.6950
 -0.6629  -0.6164  -0.5838  -0.5804  -0.5778  -0.5699  -0.5525  -0.5337
 -0.5240  -0.5201  -0.5102  -0.4974  -0.4892  -0.4682  -0.4529  -0.3661
 -0.3434  -0.3409  -0.2710

          Ground-State Mulliken Net Atomic Charges

     Atom                 Charge (a.u.)
  ----------------------------------------
      1 C                    -0.212594
      2 C                    -0.252525
      3 C                     0.046604
      4 H                     0.185427
      5 C                    -0.023748
      6 S                     0.012151
      7 C                    -0.317257
      8 H                     0.115283
      9 H                     0.112572
     10 H                     0.119714
     11 H                     0.206234
     12 C                     0.058614
     13 C                    -0.300313
     14 C                     0.050080
     15 H                     0.178981
     16 C                    -0.259218
     17 S                     0.031096
     18 C                    -0.270143
     19 H                     0.103051
     20 H                     0.108243
     21 H                     0.109217
     22 H                     0.198531
  ----------------------------------------
  Sum of atomic charges =     0.000000

                    Cartesian Multipole Moments
 -----------------------------------------------------------------
    Charge (ESU x 10^10)
                -0.0000
    Dipole Moment (Debye)
         X      -0.0501      Y       0.1437      Z      -0.0172
       Tot       0.1531
    Quadrupole Moments (Debye-Ang)
        XX     -91.2670     XY       3.5362     YY     -69.3247
        XZ       2.5135     YZ       3.3490     ZZ     -80.6145

 Total job time:  53.23s(wall), 1809.85s(cpu)
        *  Thank you very much for using Q-Chem.  Have a nice day.  *
