 Q-Chem 5.4, Q-Chem, Inc., Pleasanton, CA (2021)
 Q-Chem 5.4.0 for Intel X86 EM64T Linux

User input:
--------------------------------------------------------------
$molecule
0 1
C	0.466510	-3.887800	-0.554267
C	-0.424173	-3.701456	0.507121
C	-0.697244	-2.345170	0.831575
H	-0.877789	-4.545233	1.048337
C	-0.000000	-1.450135	-0.000000
S	0.982150	-2.321334	-1.169911
C	-1.627024	-1.934439	1.939374
H	-2.054010	-2.819799	2.448894
H	-2.475299	-1.326210	1.561545
H	-1.108051	-1.325374	2.708773
H	0.841863	-4.815326	-1.000944
C	0.000000	0.000000	0.000000
C	0.070542	0.841660	1.113020
C	0.187101	2.227746	0.820578
H	0.038051	0.454925	2.142881
C	0.208076	2.475009	-0.563588
S	0.080917	0.967235	-1.464748
C	0.276318	3.288613	1.882380
H	0.238704	2.842244	2.894974
H	-0.557951	4.017140	1.808137
H	1.220618	3.867466	1.808230
H	0.288286	3.429678	-1.097114
$end

$rem
JOBTYPE		SP
EXCHANGE	HF
CORRELATION	pRIMP2
BASIS		cc-pvtz
METHOD		rimp2
AUX_BASIS	rimp2-cc-pvtz
SOLVENT_METHOD	PCM
PURECART	11111
SYMMETRY	false
MEM_TOTAL	110000
SCF_CONVERGENCE = 6
THRESH=10
GUI = 2
$end

$solvent
dielectric 4.90
$end
--------------------------------------------------------------

             Standard Nuclear Orientation (Angstroms)
    I     Atom           X                Y                Z
 ----------------------------------------------------------------
    1      C       0.4665100000    -3.8878000000    -0.5542670000
    2      C      -0.4241730000    -3.7014560000     0.5071210000
    3      C      -0.6972440000    -2.3451700000     0.8315750000
    4      H      -0.8777890000    -4.5452330000     1.0483370000
    5      C       0.0000000000    -1.4501350000     0.0000000000
    6      S       0.9821500000    -2.3213340000    -1.1699110000
    7      C      -1.6270240000    -1.9344390000     1.9393740000
    8      H      -2.0540100000    -2.8197990000     2.4488940000
    9      H      -2.4752990000    -1.3262100000     1.5615450000
   10      H      -1.1080510000    -1.3253740000     2.7087730000
   11      H       0.8418630000    -4.8153260000    -1.0009440000
   12      C       0.0000000000     0.0000000000     0.0000000000
   13      C       0.0705420000     0.8416600000     1.1130200000
   14      C       0.1871010000     2.2277460000     0.8205780000
   15      H       0.0380510000     0.4549250000     2.1428810000
   16      C       0.2080760000     2.4750090000    -0.5635880000
   17      S       0.0809170000     0.9672350000    -1.4647480000
   18      C       0.2763180000     3.2886130000     1.8823800000
   19      H       0.2387040000     2.8422440000     2.8949740000
   20      H      -0.5579510000     4.0171400000     1.8081370000
   21      H       1.2206180000     3.8674660000     1.8082300000
   22      H       0.2882860000     3.4296780000    -1.0971140000
 ----------------------------------------------------------------

   10   -1179.6862800998      5.19e-07  Convergence criterion met
 Total energy in the final basis set =    -1179.6862800998
        RIMP2         total energy =     -1181.6650473007 a.u.

                    Orbital Energies (a.u.)
 --------------------------------------------------------------

 Alpha MOs
 -- Occupied --
-91.9866 -91.9862 -11.2826 -11.2774 -11.2725 -11.2644 -11.2531 -11.2522
-11.2435 -11.2405 -11.2300 -11.2295  -8.9861  -8.9858  -6.6670  -6.6667
 -6.6665  -6.6662  -6.6658  -6.6656  -1.1798  -1.1502  -1.0405  -1.0253
 -0.9961  -0.9558  -0.9133  -0.8940  -0.8018  -0.7541  -0.7293  -0.6981
 -0.6620  -0.6156  -0.5874  -0.5809  -0.5701  -0.5641  -0.5517  -0.5365
 -0.5297  -0.5214  -0.5057  -0.4917  -0.4891  -0.4724  -0.4570  -0.3583
 -0.3432  -0.3391  -0.2780

          Ground-State Mulliken Net Atomic Charges

     Atom                 Charge (a.u.)
  ----------------------------------------
      1 C                    -0.214138
      2 C                    -0.249993
      3 C                     0.045860
      4 H                     0.185454
      5 C                    -0.038439
      6 S                     0.016899
      7 C                    -0.293009
      8 H                     0.111805
      9 H                     0.114700
     10 H                     0.106415
     11 H                     0.205099
     12 C                     0.009400
     13 C                    -0.227929
     14 C                     0.015714
     15 H                     0.192342
     16 C                    -0.240924
     17 S                     0.014404
     18 C                    -0.272317
     19 H                     0.102096
     20 H                     0.108360
     21 H                     0.108991
     22 H                     0.199211
  ----------------------------------------
  Sum of atomic charges =     0.000000

                    Cartesian Multipole Moments
 -----------------------------------------------------------------
    Charge (ESU x 10^10)
                -0.0000
    Dipole Moment (Debye)
         X      -0.8091      Y       0.2185      Z       2.6193
       Tot       2.7501
    Quadrupole Moments (Debye-Ang)
        XX     -89.9601     XY       2.3139     YY     -68.6295
        XZ      -3.1595     YZ      -0.5755     ZZ     -82.8533

 Total job time:  53.15s(wall), 1827.30s(cpu)
        *  Thank you very much for using Q-Chem.  Have a nice day.  *
