 Q-Chem 5.4, Q-Chem, Inc., Pleasanton, CA (2021)
 Q-Chem 5.4.0 for Intel X86 EM64T Linux

User input:
--------------------------------------------------------------
$molecule
0 1
C	0.001092	-3.887800	-0.724460
C	0.001036	-3.701456	0.661131
C	0.000406	-2.345170	1.085203
H	0.001433	-4.545233	1.367305
C	0.000000	-1.450135	0.000000
S	0.000367	-2.321334	-1.527517
C	0.000233	-1.934439	2.531478
H	0.000656	-2.819799	3.196254
H	-0.892447	-1.326210	2.787305
H	0.892350	-1.325374	2.787282
H	0.001511	-4.815326	-1.307907
C	0.000000	0.000000	0.000000
C	-0.003081	0.844605	1.113020
C	-0.007772	2.235575	0.820578
H	-0.001743	0.456510	2.142881
C	-0.008427	2.483726	-0.563588
S	-0.003691	0.970607	-1.464748
C	-0.011355	3.300181	1.882380
H	-0.009922	2.852233	2.894974
H	-0.905944	3.953225	1.808137
H	0.878901	3.959133	1.808230
H	-0.011727	3.441752	-1.097114
$end

$rem
JOBTYPE		SP
EXCHANGE	HF
CORRELATION	pRIMP2
BASIS		cc-pvtz
METHOD		rimp2
AUX_BASIS	rimp2-cc-pvtz
SOLVENT_METHOD	PCM
PURECART	11111
SYMMETRY	false
MEM_TOTAL	110000
SCF_CONVERGENCE = 6
THRESH=10
GUI = 2
$end

$solvent
dielectric 4.90
$end
--------------------------------------------------------------

             Standard Nuclear Orientation (Angstroms)
    I     Atom           X                Y                Z
 ----------------------------------------------------------------
    1      C       0.0010920000    -3.8878000000    -0.7244600000
    2      C       0.0010360000    -3.7014560000     0.6611310000
    3      C       0.0004060000    -2.3451700000     1.0852030000
    4      H       0.0014330000    -4.5452330000     1.3673050000
    5      C       0.0000000000    -1.4501350000     0.0000000000
    6      S       0.0003670000    -2.3213340000    -1.5275170000
    7      C       0.0002330000    -1.9344390000     2.5314780000
    8      H       0.0006560000    -2.8197990000     3.1962540000
    9      H      -0.8924470000    -1.3262100000     2.7873050000
   10      H       0.8923500000    -1.3253740000     2.7872820000
   11      H       0.0015110000    -4.8153260000    -1.3079070000
   12      C       0.0000000000     0.0000000000     0.0000000000
   13      C      -0.0030810000     0.8446050000     1.1130200000
   14      C      -0.0077720000     2.2355750000     0.8205780000
   15      H      -0.0017430000     0.4565100000     2.1428810000
   16      C      -0.0084270000     2.4837260000    -0.5635880000
   17      S      -0.0036910000     0.9706070000    -1.4647480000
   18      C      -0.0113550000     3.3001810000     1.8823800000
   19      H      -0.0099220000     2.8522330000     2.8949740000
   20      H      -0.9059440000     3.9532250000     1.8081370000
   21      H       0.8789010000     3.9591330000     1.8082300000
   22      H      -0.0117270000     3.4417520000    -1.0971140000
 ----------------------------------------------------------------

   10   -1179.6850781167      5.22e-07  Convergence criterion met
 Total energy in the final basis set =    -1179.6850781167
        RIMP2         total energy =     -1181.6650465691 a.u.

                    Orbital Energies (a.u.)
 --------------------------------------------------------------

 Alpha MOs
 -- Occupied --
-91.9861 -91.9861 -11.2846 -11.2798 -11.2735 -11.2640 -11.2543 -11.2521
-11.2446 -11.2383 -11.2320 -11.2295  -8.9860  -8.9858  -6.6670  -6.6667
 -6.6664  -6.6662  -6.6658  -6.6656  -1.1812  -1.1506  -1.0412  -1.0283
 -0.9957  -0.9560  -0.9154  -0.8952  -0.8026  -0.7567  -0.7267  -0.7017
 -0.6621  -0.6146  -0.5917  -0.5826  -0.5700  -0.5634  -0.5516  -0.5404
 -0.5298  -0.5234  -0.5029  -0.4915  -0.4899  -0.4770  -0.4516  -0.3706
 -0.3478  -0.3379  -0.2695

          Ground-State Mulliken Net Atomic Charges

     Atom                 Charge (a.u.)
  ----------------------------------------
      1 C                    -0.210936
      2 C                    -0.258258
      3 C                     0.080122
      4 H                     0.185220
      5 C                    -0.055012
      6 S                     0.008247
      7 C                    -0.314564
      8 H                     0.120900
      9 H                     0.109628
     10 H                     0.109615
     11 H                     0.207659
     12 C                     0.035239
     13 C                    -0.233692
     14 C                     0.018166
     15 H                     0.196745
     16 C                    -0.251196
     17 S                     0.004664
     18 C                    -0.271913
     19 H                     0.101189
     20 H                     0.108766
     21 H                     0.108749
     22 H                     0.200659
  ----------------------------------------
  Sum of atomic charges =     0.000000

                    Cartesian Multipole Moments
 -----------------------------------------------------------------
    Charge (ESU x 10^10)
                -0.0000
    Dipole Moment (Debye)
         X      -0.0057      Y       0.0843      Z       2.9832
       Tot       2.9844
    Quadrupole Moments (Debye-Ang)
        XX     -92.8133     XY      -0.0435     YY     -68.1890
        XZ      -0.0039     YZ      -1.1695     ZZ     -79.9838

 Total job time:  79.20s(wall), 1795.40s(cpu)
        *  Thank you very much for using Q-Chem.  Have a nice day.  *
