 Q-Chem 5.4, Q-Chem, Inc., Pleasanton, CA (2021)
 Q-Chem 5.4.0 for Intel X86 EM64T Linux

User input:
--------------------------------------------------------------
$molecule
0 1
C	0.626855	-3.887800	0.363176
C	-0.573074	-3.701456	-0.329669
C	-0.940016	-2.345170	-0.542250
H	-1.184837	-4.545233	-0.682412
C	0.000000	-1.450135	0.000000
S	1.322686	-2.321334	0.764076
C	-2.192440	-1.934439	-1.265537
H	-2.768365	-2.819799	-1.597559
H	-1.967653	-1.326210	-2.166534
H	-2.860032	-1.325374	-0.620843
H	1.131925	-4.815326	0.655262
C	0.000000	0.000000	0.000000
C	0.729909	0.424971	1.113020
C	1.932179	1.124518	0.820578
H	0.394478	0.229765	2.142881
C	2.146756	1.249161	-0.563588
S	0.838724	0.488500	-1.464748
C	2.852364	1.659924	1.882380
H	2.465145	1.434710	2.894974
H	2.970621	2.761183	1.808137
H	3.868160	1.218416	1.808230
H	2.974781	1.731032	-1.097114
$end

$rem
JOBTYPE		SP
EXCHANGE	HF
CORRELATION	pRIMP2
BASIS		cc-pvtz
METHOD		rimp2
AUX_BASIS	rimp2-cc-pvtz
SOLVENT_METHOD	PCM
PURECART	11111
SYMMETRY	false
MEM_TOTAL	110000
SCF_CONVERGENCE = 6
THRESH=10
GUI = 2
$end

$solvent
dielectric 4.90
$end
--------------------------------------------------------------

             Standard Nuclear Orientation (Angstroms)
    I     Atom           X                Y                Z
 ----------------------------------------------------------------
    1      C       0.6268550000    -3.8878000000     0.3631760000
    2      C      -0.5730740000    -3.7014560000    -0.3296690000
    3      C      -0.9400160000    -2.3451700000    -0.5422500000
    4      H      -1.1848370000    -4.5452330000    -0.6824120000
    5      C       0.0000000000    -1.4501350000     0.0000000000
    6      S       1.3226860000    -2.3213340000     0.7640760000
    7      C      -2.1924400000    -1.9344390000    -1.2655370000
    8      H      -2.7683650000    -2.8197990000    -1.5975590000
    9      H      -1.9676530000    -1.3262100000    -2.1665340000
   10      H      -2.8600320000    -1.3253740000    -0.6208430000
   11      H       1.1319250000    -4.8153260000     0.6552620000
   12      C       0.0000000000     0.0000000000     0.0000000000
   13      C       0.7299090000     0.4249710000     1.1130200000
   14      C       1.9321790000     1.1245180000     0.8205780000
   15      H       0.3944780000     0.2297650000     2.1428810000
   16      C       2.1467560000     1.2491610000    -0.5635880000
   17      S       0.8387240000     0.4885000000    -1.4647480000
   18      C       2.8523640000     1.6599240000     1.8823800000
   19      H       2.4651450000     1.4347100000     2.8949740000
   20      H       2.9706210000     2.7611830000     1.8081370000
   21      H       3.8681600000     1.2184160000     1.8082300000
   22      H       2.9747810000     1.7310320000    -1.0971140000
 ----------------------------------------------------------------

   10   -1179.6194326037      7.66e-07  Convergence criterion met
 Total energy in the final basis set =    -1179.6194326037
        RIMP2         total energy =     -1181.6135065390 a.u.

                    Orbital Energies (a.u.)
 --------------------------------------------------------------

 Alpha MOs
 -- Occupied --
-91.9843 -91.9778 -11.2917 -11.2719 -11.2633 -11.2617 -11.2552 -11.2516
-11.2373 -11.2361 -11.2316 -11.2247  -8.9846  -8.9779  -6.6654  -6.6646
 -6.6642  -6.6588  -6.6581  -6.6575  -1.1914  -1.1451  -1.0456  -1.0175
 -1.0025  -0.9477  -0.9146  -0.8896  -0.7960  -0.7579  -0.7341  -0.6874
 -0.6560  -0.6228  -0.5879  -0.5799  -0.5702  -0.5684  -0.5480  -0.5352
 -0.5298  -0.5142  -0.5066  -0.4924  -0.4679  -0.4609  -0.4576  -0.3527
 -0.3400  -0.3282  -0.2811

          Ground-State Mulliken Net Atomic Charges

     Atom                 Charge (a.u.)
  ----------------------------------------
      1 C                    -0.243342
      2 C                    -0.238801
      3 C                     0.022113
      4 H                     0.181838
      5 C                    -0.013489
      6 S                     0.009272
      7 C                    -0.288601
      8 H                     0.106816
      9 H                     0.105463
     10 H                     0.108241
     11 H                     0.200676
     12 C                    -0.130552
     13 C                    -0.156554
     14 C                    -0.008248
     15 H                     0.197927
     16 C                    -0.162571
     17 S                     0.049440
     18 C                    -0.266520
     19 H                     0.104681
     20 H                     0.110802
     21 H                     0.107597
     22 H                     0.203812
  ----------------------------------------
  Sum of atomic charges =     0.000000

                    Cartesian Multipole Moments
 -----------------------------------------------------------------
    Charge (ESU x 10^10)
                -0.0000
    Dipole Moment (Debye)
         X       1.6467      Y       0.8891      Z       0.9219
       Tot       2.0861
    Quadrupole Moments (Debye-Ang)
        XX     -78.4359     XY       7.8895     YY     -79.8539
        XZ       3.1826     YZ       1.8021     ZZ     -84.2995

 Total job time:  49.32s(wall), 1758.53s(cpu)
        *  Thank you very much for using Q-Chem.  Have a nice day.  *
