 Q-Chem 5.4, Q-Chem, Inc., Pleasanton, CA (2021)
 Q-Chem 5.4.0 for Intel X86 EM64T Linux

User input:
--------------------------------------------------------------
$molecule
0 1
C	0.713644	-3.887800	-0.124726
C	-0.650907	-3.701456	0.115824
C	-1.068646	-2.345170	0.188844
H	-1.346284	-4.545233	0.238841
C	-0.000000	-1.450135	-0.000000
S	1.504375	-2.321334	-0.264890
C	-2.492978	-1.934439	0.439816
H	-3.147582	-2.819799	0.555669
H	-2.899931	-1.326210	-0.394879
H	-2.589982	-1.325374	1.362799
H	1.288299	-4.815326	-0.225628
C	0.000000	0.000000	0.000000
C	0.215623	0.816623	1.113020
C	0.571102	2.161411	0.820578
H	0.116470	0.441406	2.142881
C	0.634696	2.401276	-0.563588
S	0.247646	0.938489	-1.464748
C	0.843182	3.190669	1.882380
H	0.728628	2.757614	2.894974
H	0.148095	4.052998	1.808137
H	1.873652	3.596752	1.808230
H	0.879464	3.327513	-1.097114
$end

$rem
JOBTYPE		SP
EXCHANGE	HF
CORRELATION	pRIMP2
BASIS		cc-pvtz
METHOD		rimp2
AUX_BASIS	rimp2-cc-pvtz
SOLVENT_METHOD	PCM
PURECART	11111
SYMMETRY	false
MEM_TOTAL	110000
SCF_CONVERGENCE = 6
THRESH=10
GUI = 2
$end

$solvent
dielectric 4.90
$end
--------------------------------------------------------------

             Standard Nuclear Orientation (Angstroms)
    I     Atom           X                Y                Z
 ----------------------------------------------------------------
    1      C       0.7136440000    -3.8878000000    -0.1247260000
    2      C      -0.6509070000    -3.7014560000     0.1158240000
    3      C      -1.0686460000    -2.3451700000     0.1888440000
    4      H      -1.3462840000    -4.5452330000     0.2388410000
    5      C       0.0000000000    -1.4501350000     0.0000000000
    6      S       1.5043750000    -2.3213340000    -0.2648900000
    7      C      -2.4929780000    -1.9344390000     0.4398160000
    8      H      -3.1475820000    -2.8197990000     0.5556690000
    9      H      -2.8999310000    -1.3262100000    -0.3948790000
   10      H      -2.5899820000    -1.3253740000     1.3627990000
   11      H       1.2882990000    -4.8153260000    -0.2256280000
   12      C       0.0000000000     0.0000000000     0.0000000000
   13      C       0.2156230000     0.8166230000     1.1130200000
   14      C       0.5711020000     2.1614110000     0.8205780000
   15      H       0.1164700000     0.4414060000     2.1428810000
   16      C       0.6346960000     2.4012760000    -0.5635880000
   17      S       0.2476460000     0.9384890000    -1.4647480000
   18      C       0.8431820000     3.1906690000     1.8823800000
   19      H       0.7286280000     2.7576140000     2.8949740000
   20      H       0.1480950000     4.0529980000     1.8081370000
   21      H       1.8736520000     3.5967520000     1.8082300000
   22      H       0.8794640000     3.3275130000    -1.0971140000
 ----------------------------------------------------------------

   10   -1179.6818404770      5.06e-07  Convergence criterion met
 Total energy in the final basis set =    -1179.6818404770
        RIMP2         total energy =     -1181.6600975014 a.u.

                    Orbital Energies (a.u.)
 --------------------------------------------------------------

 Alpha MOs
 -- Occupied --
-91.9854 -91.9848 -11.2776 -11.2730 -11.2723 -11.2663 -11.2523 -11.2510
-11.2428 -11.2415 -11.2292 -11.2290  -8.9849  -8.9844  -6.6658  -6.6653
 -6.6652  -6.6647  -6.6646  -6.6641  -1.1781  -1.1494  -1.0393  -1.0227
 -0.9964  -0.9540  -0.9127  -0.8925  -0.7999  -0.7522  -0.7311  -0.6944
 -0.6617  -0.6166  -0.5829  -0.5792  -0.5700  -0.5686  -0.5513  -0.5307
 -0.5301  -0.5193  -0.5073  -0.4919  -0.4866  -0.4654  -0.4625  -0.3487
 -0.3367  -0.3204  -0.3033

          Ground-State Mulliken Net Atomic Charges

     Atom                 Charge (a.u.)
  ----------------------------------------
      1 C                    -0.206489
      2 C                    -0.252023
      3 C                     0.056375
      4 H                     0.184483
      5 C                    -0.061887
      6 S                     0.025829
      7 C                    -0.283739
      8 H                     0.106960
      9 H                     0.110821
     10 H                     0.108901
     11 H                     0.204158
     12 C                    -0.009789
     13 C                    -0.224204
     14 C                     0.020320
     15 H                     0.184806
     16 C                    -0.235538
     17 S                     0.024934
     18 C                    -0.270922
     19 H                     0.102743
     20 H                     0.107810
     21 H                     0.108245
     22 H                     0.198206
  ----------------------------------------
  Sum of atomic charges =     0.000000

                    Cartesian Multipole Moments
 -----------------------------------------------------------------
    Charge (ESU x 10^10)
                -0.0000
    Dipole Moment (Debye)
         X      -0.9725      Y       0.3051      Z       1.7539
       Tot       2.0286
    Quadrupole Moments (Debye-Ang)
        XX     -85.6286     XY       4.9085     YY     -69.5837
        XZ      -0.8113     YZ       0.6785     ZZ     -86.4964

 Total job time:  54.49s(wall), 1812.09s(cpu)
        *  Thank you very much for using Q-Chem.  Have a nice day.  *
