 Q-Chem 5.4, Q-Chem, Inc., Pleasanton, CA (2021)
 Q-Chem 5.4.0 for Intel X86 EM64T Linux

User input:
--------------------------------------------------------------
$molecule
0 1
C	0.713264	-3.887800	0.126876
C	-0.651267	-3.701456	-0.113784
C	-1.068787	-2.345170	-0.188043
H	-1.346782	-4.545233	-0.236019
C	-0.000000	-1.450135	-0.000000
S	1.504247	-2.321334	0.265612
C	-2.493059	-1.934439	-0.439357
H	-3.147809	-2.819799	-0.554378
H	-2.589987	-1.326210	-1.362899
H	-2.899892	-1.325374	0.394786
H	1.287774	-4.815326	0.228603
C	0.000000	0.000000	0.000000
C	0.215623	0.816623	1.113020
C	0.571102	2.161411	0.820578
H	0.116470	0.441406	2.142881
C	0.634696	2.401276	-0.563588
S	0.247646	0.938489	-1.464748
C	0.843182	3.190669	1.882380
H	0.728628	2.757614	2.894974
H	0.148095	4.052998	1.808137
H	1.873652	3.596752	1.808230
H	0.879464	3.327513	-1.097114
$end

$rem
JOBTYPE		SP
EXCHANGE	HF
CORRELATION	pRIMP2
BASIS		cc-pvtz
METHOD		rimp2
AUX_BASIS	rimp2-cc-pvtz
SOLVENT_METHOD	PCM
PURECART	11111
SYMMETRY	false
MEM_TOTAL	110000
SCF_CONVERGENCE = 6
THRESH=10
GUI = 2
$end

$solvent
dielectric 4.90
$end
--------------------------------------------------------------

             Standard Nuclear Orientation (Angstroms)
    I     Atom           X                Y                Z
 ----------------------------------------------------------------
    1      C       0.7132640000    -3.8878000000     0.1268760000
    2      C      -0.6512670000    -3.7014560000    -0.1137840000
    3      C      -1.0687870000    -2.3451700000    -0.1880430000
    4      H      -1.3467820000    -4.5452330000    -0.2360190000
    5      C       0.0000000000    -1.4501350000     0.0000000000
    6      S       1.5042470000    -2.3213340000     0.2656120000
    7      C      -2.4930590000    -1.9344390000    -0.4393570000
    8      H      -3.1478090000    -2.8197990000    -0.5543780000
    9      H      -2.5899870000    -1.3262100000    -1.3628990000
   10      H      -2.8998920000    -1.3253740000     0.3947860000
   11      H       1.2877740000    -4.8153260000     0.2286030000
   12      C       0.0000000000     0.0000000000     0.0000000000
   13      C       0.2156230000     0.8166230000     1.1130200000
   14      C       0.5711020000     2.1614110000     0.8205780000
   15      H       0.1164700000     0.4414060000     2.1428810000
   16      C       0.6346960000     2.4012760000    -0.5635880000
   17      S       0.2476460000     0.9384890000    -1.4647480000
   18      C       0.8431820000     3.1906690000     1.8823800000
   19      H       0.7286280000     2.7576140000     2.8949740000
   20      H       0.1480950000     4.0529980000     1.8081370000
   21      H       1.8736520000     3.5967520000     1.8082300000
   22      H       0.8794640000     3.3275130000    -1.0971140000
 ----------------------------------------------------------------

   10   -1179.6823401219      5.05e-07  Convergence criterion met
 Total energy in the final basis set =    -1179.6823401219
        RIMP2         total energy =     -1181.6604935266 a.u.

                    Orbital Energies (a.u.)
 --------------------------------------------------------------

 Alpha MOs
 -- Occupied --
-91.9852 -91.9851 -11.2774 -11.2726 -11.2726 -11.2663 -11.2525 -11.2509
-11.2426 -11.2416 -11.2291 -11.2290  -8.9847  -8.9846  -6.6655  -6.6654
 -6.6650  -6.6649  -6.6644  -6.6643  -1.1780  -1.1494  -1.0392  -1.0225
 -0.9970  -0.9532  -0.9133  -0.8922  -0.7994  -0.7545  -0.7290  -0.6936
 -0.6619  -0.6167  -0.5825  -0.5790  -0.5709  -0.5692  -0.5513  -0.5317
 -0.5282  -0.5190  -0.5071  -0.4928  -0.4868  -0.4647  -0.4626  -0.3469
 -0.3372  -0.3207  -0.3042

          Ground-State Mulliken Net Atomic Charges

     Atom                 Charge (a.u.)
  ----------------------------------------
      1 C                    -0.206415
      2 C                    -0.252520
      3 C                     0.053472
      4 H                     0.184479
      5 C                    -0.057463
      6 S                     0.026413
      7 C                    -0.283768
      8 H                     0.106557
      9 H                     0.109888
     10 H                     0.110274
     11 H                     0.204165
     12 C                     0.000349
     13 C                    -0.243331
     14 C                     0.028202
     15 H                     0.185479
     16 C                    -0.237963
     17 S                     0.025340
     18 C                    -0.270468
     19 H                     0.102853
     20 H                     0.107782
     21 H                     0.108271
     22 H                     0.198402
  ----------------------------------------
  Sum of atomic charges =     0.000000

                    Cartesian Multipole Moments
 -----------------------------------------------------------------
    Charge (ESU x 10^10)
                -0.0000
    Dipole Moment (Debye)
         X      -0.9761      Y       0.2681      Z       1.2184
       Tot       1.5840
    Quadrupole Moments (Debye-Ang)
        XX     -85.5978     XY       4.9183     YY     -69.4931
        XZ       1.4515     YZ       1.4780     ZZ     -86.5079

 Total job time:  51.65s(wall), 1769.00s(cpu)
        *  Thank you very much for using Q-Chem.  Have a nice day.  *
