 Q-Chem 5.4, Q-Chem, Inc., Pleasanton, CA (2021)
 Q-Chem 5.4.0 for Intel X86 EM64T Linux

User input:
--------------------------------------------------------------
$molecule
0 1
C	-0.713644	-3.887800	0.124726
C	0.650907	-3.701456	-0.115824
C	1.068646	-2.345170	-0.188844
H	1.346284	-4.545233	-0.238841
C	-0.000000	-1.450135	-0.000000
S	-1.504375	-2.321334	0.264890
C	2.492978	-1.934439	-0.439816
H	3.147582	-2.819799	-0.555669
H	2.899931	-1.326210	0.394879
H	2.589982	-1.325374	-1.362799
H	-1.288299	-4.815326	0.225628
C	0.000000	0.000000	0.000000
C	0.215623	0.816623	1.113020
C	0.571102	2.161411	0.820578
H	0.116470	0.441406	2.142881
C	0.634696	2.401276	-0.563588
S	0.247646	0.938489	-1.464748
C	0.843182	3.190669	1.882380
H	0.728628	2.757614	2.894974
H	0.148095	4.052998	1.808137
H	1.873652	3.596752	1.808230
H	0.879464	3.327513	-1.097114
$end

$rem
JOBTYPE		SP
EXCHANGE	HF
CORRELATION	pRIMP2
BASIS		cc-pvtz
METHOD		rimp2
AUX_BASIS	rimp2-cc-pvtz
SOLVENT_METHOD	PCM
PURECART	11111
SYMMETRY	false
MEM_TOTAL	110000
SCF_CONVERGENCE = 6
THRESH=10
GUI = 2
$end

$solvent
dielectric 4.90
$end
--------------------------------------------------------------

             Standard Nuclear Orientation (Angstroms)
    I     Atom           X                Y                Z
 ----------------------------------------------------------------
    1      C      -0.7136440000    -3.8878000000     0.1247260000
    2      C       0.6509070000    -3.7014560000    -0.1158240000
    3      C       1.0686460000    -2.3451700000    -0.1888440000
    4      H       1.3462840000    -4.5452330000    -0.2388410000
    5      C       0.0000000000    -1.4501350000     0.0000000000
    6      S      -1.5043750000    -2.3213340000     0.2648900000
    7      C       2.4929780000    -1.9344390000    -0.4398160000
    8      H       3.1475820000    -2.8197990000    -0.5556690000
    9      H       2.8999310000    -1.3262100000     0.3948790000
   10      H       2.5899820000    -1.3253740000    -1.3627990000
   11      H      -1.2882990000    -4.8153260000     0.2256280000
   12      C       0.0000000000     0.0000000000     0.0000000000
   13      C       0.2156230000     0.8166230000     1.1130200000
   14      C       0.5711020000     2.1614110000     0.8205780000
   15      H       0.1164700000     0.4414060000     2.1428810000
   16      C       0.6346960000     2.4012760000    -0.5635880000
   17      S       0.2476460000     0.9384890000    -1.4647480000
   18      C       0.8431820000     3.1906690000     1.8823800000
   19      H       0.7286280000     2.7576140000     2.8949740000
   20      H       0.1480950000     4.0529980000     1.8081370000
   21      H       1.8736520000     3.5967520000     1.8082300000
   22      H       0.8794640000     3.3275130000    -1.0971140000
 ----------------------------------------------------------------

   10   -1179.6817327280      5.17e-07  Convergence criterion met
 Total energy in the final basis set =    -1179.6817327280
        RIMP2         total energy =     -1181.6609777477 a.u.

                    Orbital Energies (a.u.)
 --------------------------------------------------------------

 Alpha MOs
 -- Occupied --
-91.9855 -91.9843 -11.2776 -11.2738 -11.2717 -11.2667 -11.2529 -11.2512
-11.2434 -11.2419 -11.2293 -11.2283  -8.9850  -8.9839  -6.6659  -6.6653
 -6.6648  -6.6647  -6.6642  -6.6636  -1.1782  -1.1494  -1.0395  -1.0218
 -0.9972  -0.9539  -0.9131  -0.8923  -0.7990  -0.7546  -0.7294  -0.6950
 -0.6614  -0.6167  -0.5817  -0.5790  -0.5720  -0.5693  -0.5512  -0.5307
 -0.5286  -0.5196  -0.5090  -0.4923  -0.4858  -0.4645  -0.4613  -0.3444
 -0.3413  -0.3203  -0.3033

          Ground-State Mulliken Net Atomic Charges

     Atom                 Charge (a.u.)
  ----------------------------------------
      1 C                    -0.216049
      2 C                    -0.249076
      3 C                     0.056589
      4 H                     0.185036
      5 C                    -0.034757
      6 S                     0.027709
      7 C                    -0.281826
      8 H                     0.108599
      9 H                     0.110570
     10 H                     0.110790
     11 H                     0.203621
     12 C                    -0.039124
     13 C                    -0.227842
     14 C                     0.021608
     15 H                     0.185755
     16 C                    -0.235674
     17 S                     0.027486
     18 C                    -0.270798
     19 H                     0.102944
     20 H                     0.108346
     21 H                     0.107740
     22 H                     0.198352
  ----------------------------------------
  Sum of atomic charges =     0.000000

                    Cartesian Multipole Moments
 -----------------------------------------------------------------
    Charge (ESU x 10^10)
                -0.0000
    Dipole Moment (Debye)
         X       2.0114      Y       0.3511      Z       1.2136
       Tot       2.3753
    Quadrupole Moments (Debye-Ang)
        XX     -85.7186     XY       0.4798     YY     -69.7281
        XZ      -0.8611     YZ       1.5048     ZZ     -86.4782

 Total job time:  49.27s(wall), 1679.44s(cpu)
        *  Thank you very much for using Q-Chem.  Have a nice day.  *
