 Q-Chem 5.4, Q-Chem, Inc., Pleasanton, CA (2021)
 Q-Chem 5.4.0 for Intel X86 EM64T Linux

User input:
--------------------------------------------------------------
$molecule
0 1
C	-0.626855	-3.887800	-0.363176
C	0.573074	-3.701456	0.329669
C	0.940016	-2.345170	0.542250
H	1.184837	-4.545233	0.682412
C	0.000000	-1.450135	0.000000
S	-1.322686	-2.321334	-0.764076
C	2.192440	-1.934439	1.265537
H	2.768365	-2.819799	1.597559
H	1.967653	-1.326210	2.166534
H	2.860032	-1.325374	0.620843
H	-1.131925	-4.815326	-0.655262
C	0.000000	0.000000	0.000000
C	-0.003081	0.844605	1.113020
C	-0.007772	2.235575	0.820578
H	-0.001743	0.456510	2.142881
C	-0.008427	2.483726	-0.563588
S	-0.003691	0.970607	-1.464748
C	-0.011355	3.300181	1.882380
H	-0.009922	2.852233	2.894974
H	-0.905944	3.953225	1.808137
H	0.878901	3.959133	1.808230
H	-0.011727	3.441752	-1.097114
$end

$rem
JOBTYPE		SP
EXCHANGE	HF
CORRELATION	pRIMP2
BASIS		cc-pvtz
METHOD		rimp2
AUX_BASIS	rimp2-cc-pvtz
SOLVENT_METHOD	PCM
PURECART	11111
SYMMETRY	false
MEM_TOTAL	110000
SCF_CONVERGENCE = 6
THRESH=10
GUI = 2
$end

$solvent
dielectric 4.90
$end
--------------------------------------------------------------

             Standard Nuclear Orientation (Angstroms)
    I     Atom           X                Y                Z
 ----------------------------------------------------------------
    1      C      -0.6268550000    -3.8878000000    -0.3631760000
    2      C       0.5730740000    -3.7014560000     0.3296690000
    3      C       0.9400160000    -2.3451700000     0.5422500000
    4      H       1.1848370000    -4.5452330000     0.6824120000
    5      C       0.0000000000    -1.4501350000     0.0000000000
    6      S      -1.3226860000    -2.3213340000    -0.7640760000
    7      C       2.1924400000    -1.9344390000     1.2655370000
    8      H       2.7683650000    -2.8197990000     1.5975590000
    9      H       1.9676530000    -1.3262100000     2.1665340000
   10      H       2.8600320000    -1.3253740000     0.6208430000
   11      H      -1.1319250000    -4.8153260000    -0.6552620000
   12      C       0.0000000000     0.0000000000     0.0000000000
   13      C      -0.0030810000     0.8446050000     1.1130200000
   14      C      -0.0077720000     2.2355750000     0.8205780000
   15      H      -0.0017430000     0.4565100000     2.1428810000
   16      C      -0.0084270000     2.4837260000    -0.5635880000
   17      S      -0.0036910000     0.9706070000    -1.4647480000
   18      C      -0.0113550000     3.3001810000     1.8823800000
   19      H      -0.0099220000     2.8522330000     2.8949740000
   20      H      -0.9059440000     3.9532250000     1.8081370000
   21      H       0.8789010000     3.9591330000     1.8082300000
   22      H      -0.0117270000     3.4417520000    -1.0971140000
 ----------------------------------------------------------------

   10   -1179.6866276534      5.19e-07  Convergence criterion met
 Total energy in the final basis set =    -1179.6866276534
        RIMP2         total energy =     -1181.6645145681 a.u.

                    Orbital Energies (a.u.)
 --------------------------------------------------------------

 Alpha MOs
 -- Occupied --
-91.9861 -91.9855 -11.2804 -11.2750 -11.2729 -11.2646 -11.2537 -11.2514
-11.2428 -11.2409 -11.2293 -11.2293  -8.9855  -8.9851  -6.6664  -6.6660
 -6.6659  -6.6655  -6.6653  -6.6649  -1.1785  -1.1499  -1.0396  -1.0238
 -0.9962  -0.9550  -0.9129  -0.8931  -0.8008  -0.7527  -0.7305  -0.6962
 -0.6621  -0.6161  -0.5841  -0.5799  -0.5701  -0.5665  -0.5517  -0.5331
 -0.5293  -0.5205  -0.5067  -0.4919  -0.4888  -0.4680  -0.4604  -0.3484
 -0.3400  -0.3354  -0.2894

          Ground-State Mulliken Net Atomic Charges

     Atom                 Charge (a.u.)
  ----------------------------------------
      1 C                    -0.212701
      2 C                    -0.249323
      3 C                     0.044758
      4 H                     0.185467
      5 C                    -0.042261
      6 S                     0.022589
      7 C                    -0.282689
      8 H                     0.109626
      9 H                     0.108263
     10 H                     0.112748
     11 H                     0.204538
     12 C                    -0.006878
     13 C                    -0.229830
     14 C                     0.016455
     15 H                     0.190338
     16 C                    -0.239612
     17 S                     0.022575
     18 C                    -0.271747
     19 H                     0.102511
     20 H                     0.108667
     21 H                     0.107964
     22 H                     0.198542
  ----------------------------------------
  Sum of atomic charges =     0.000000

                    Cartesian Multipole Moments
 -----------------------------------------------------------------
    Charge (ESU x 10^10)
                -0.0000
    Dipole Moment (Debye)
         X       1.3099      Y       0.2237      Z       2.2385
       Tot       2.6032
    Quadrupole Moments (Debye-Ang)
        XX     -87.8137     XY      -1.9366     YY     -68.6613
        XZ       2.8522     YZ       0.0173     ZZ     -85.0995

 Total job time:  53.09s(wall), 1792.84s(cpu)
        *  Thank you very much for using Q-Chem.  Have a nice day.  *
