 Q-Chem 5.4, Q-Chem, Inc., Pleasanton, CA (2021)
 Q-Chem 5.4.0 for Intel X86 EM64T Linux

User input:
--------------------------------------------------------------
$molecule
0 1
C	-0.713644	-3.887800	0.124726
C	0.650907	-3.701456	-0.115824
C	1.068646	-2.345170	-0.188844
H	1.346284	-4.545233	-0.238841
C	0.000000	-1.450135	0.000000
S	-1.504375	-2.321334	0.264890
C	2.492978	-1.934439	-0.439816
H	3.147582	-2.819799	-0.555669
H	2.899931	-1.326210	0.394879
H	2.589982	-1.325374	-1.362799
H	-1.288299	-4.815326	0.225628
C	0.000000	0.000000	0.000000
C	0.143630	0.832309	1.113020
C	0.380550	2.202961	0.820578
H	0.077556	0.449877	2.142881
C	0.422995	2.447456	-0.563588
S	0.164909	0.956502	-1.464748
C	0.561888	3.252016	1.882380
H	0.485513	2.810624	2.894974
H	-0.205711	4.050482	1.808137
H	1.553045	3.746365	1.808230
H	0.586105	3.391501	-1.097114
$end

$rem
JOBTYPE		SP
EXCHANGE	HF
CORRELATION	pRIMP2
BASIS		cc-pvtz
METHOD		rimp2
AUX_BASIS	rimp2-cc-pvtz
SOLVENT_METHOD	PCM
PURECART	11111
SYMMETRY	false
MEM_TOTAL	110000
SCF_CONVERGENCE = 6
THRESH=10
GUI = 2
$end

$solvent
dielectric 4.90
$end
--------------------------------------------------------------

             Standard Nuclear Orientation (Angstroms)
    I     Atom           X                Y                Z
 ----------------------------------------------------------------
    1      C      -0.7136440000    -3.8878000000     0.1247260000
    2      C       0.6509070000    -3.7014560000    -0.1158240000
    3      C       1.0686460000    -2.3451700000    -0.1888440000
    4      H       1.3462840000    -4.5452330000    -0.2388410000
    5      C       0.0000000000    -1.4501350000     0.0000000000
    6      S      -1.5043750000    -2.3213340000     0.2648900000
    7      C       2.4929780000    -1.9344390000    -0.4398160000
    8      H       3.1475820000    -2.8197990000    -0.5556690000
    9      H       2.8999310000    -1.3262100000     0.3948790000
   10      H       2.5899820000    -1.3253740000    -1.3627990000
   11      H      -1.2882990000    -4.8153260000     0.2256280000
   12      C       0.0000000000     0.0000000000     0.0000000000
   13      C       0.1436300000     0.8323090000     1.1130200000
   14      C       0.3805500000     2.2029610000     0.8205780000
   15      H       0.0775560000     0.4498770000     2.1428810000
   16      C       0.4229950000     2.4474560000    -0.5635880000
   17      S       0.1649090000     0.9565020000    -1.4647480000
   18      C       0.5618880000     3.2520160000     1.8823800000
   19      H       0.4855130000     2.8106240000     2.8949740000
   20      H      -0.2057110000     4.0504820000     1.8081370000
   21      H       1.5530450000     3.7463650000     1.8082300000
   22      H       0.5861050000     3.3915010000    -1.0971140000
 ----------------------------------------------------------------

   10   -1179.6841017851      5.11e-07  Convergence criterion met
 Total energy in the final basis set =    -1179.6841017851
        RIMP2         total energy =     -1181.6624864782 a.u.

                    Orbital Energies (a.u.)
 --------------------------------------------------------------

 Alpha MOs
 -- Occupied --
-91.9856 -91.9849 -11.2785 -11.2737 -11.2723 -11.2658 -11.2534 -11.2511
-11.2425 -11.2421 -11.2292 -11.2286  -8.9850  -8.9844  -6.6659  -6.6654
 -6.6653  -6.6648  -6.6647  -6.6641  -1.1779  -1.1496  -1.0393  -1.0222
 -0.9971  -0.9538  -0.9133  -0.8924  -0.7993  -0.7547  -0.7291  -0.6949
 -0.6618  -0.6166  -0.5819  -0.5789  -0.5718  -0.5693  -0.5514  -0.5308
 -0.5286  -0.5195  -0.5084  -0.4925  -0.4873  -0.4645  -0.4618  -0.3446
 -0.3408  -0.3206  -0.3038

          Ground-State Mulliken Net Atomic Charges

     Atom                 Charge (a.u.)
  ----------------------------------------
      1 C                    -0.215878
      2 C                    -0.248286
      3 C                     0.049876
      4 H                     0.185193
      5 C                    -0.036637
      6 S                     0.027963
      7 C                    -0.281626
      8 H                     0.108307
      9 H                     0.110594
     10 H                     0.110429
     11 H                     0.203849
     12 C                    -0.028597
     13 C                    -0.226862
     14 C                     0.019250
     15 H                     0.185862
     16 C                    -0.236950
     17 S                     0.027249
     18 C                    -0.271084
     19 H                     0.102896
     20 H                     0.108368
     21 H                     0.107825
     22 H                     0.198260
  ----------------------------------------
  Sum of atomic charges =     0.000000

                    Cartesian Multipole Moments
 -----------------------------------------------------------------
    Charge (ESU x 10^10)
                -0.0000
    Dipole Moment (Debye)
         X       1.8286      Y       0.2984      Z       1.2055
       Tot       2.2105
    Quadrupole Moments (Debye-Ang)
        XX     -86.0728     XY      -0.3919     YY     -69.2033
        XZ      -0.9584     YZ       1.5284     ZZ     -86.5124

 Total job time:  54.89s(wall), 1834.73s(cpu)
        *  Thank you very much for using Q-Chem.  Have a nice day.  *
