 Q-Chem 5.4, Q-Chem, Inc., Pleasanton, CA (2021)
 Q-Chem 5.4.0 for Intel X86 EM64T Linux

User input:
--------------------------------------------------------------
$molecule
0 1
C	-0.627947	-3.887800	0.361285
C	0.572038	-3.701456	-0.331462
C	0.939610	-2.345170	-0.542953
H	1.183405	-4.545233	-0.684893
C	0.000000	-1.450135	0.000000
S	-1.323052	-2.321334	0.763441
C	2.192207	-1.934439	-1.265941
H	2.767709	-2.819799	-1.598695
H	2.860100	-1.326210	-0.620770
H	1.967682	-1.325374	-2.166438
H	-1.133436	-4.815326	0.652645
C	0.000000	0.000000	0.000000
C	-0.003081	0.844605	1.113020
C	-0.007772	2.235575	0.820578
H	-0.001743	0.456510	2.142881
C	-0.008427	2.483726	-0.563588
S	-0.003691	0.970607	-1.464748
C	-0.011355	3.300181	1.882380
H	-0.009922	2.852233	2.894974
H	-0.905944	3.953225	1.808137
H	0.878901	3.959133	1.808230
H	-0.011727	3.441752	-1.097114
$end

$rem
JOBTYPE		SP
EXCHANGE	HF
CORRELATION	pRIMP2
BASIS		cc-pvtz
METHOD		rimp2
AUX_BASIS	rimp2-cc-pvtz
SOLVENT_METHOD	PCM
PURECART	11111
SYMMETRY	false
MEM_TOTAL	110000
SCF_CONVERGENCE = 6
THRESH=10
GUI = 2
$end

$solvent
dielectric 4.90
$end
--------------------------------------------------------------

             Standard Nuclear Orientation (Angstroms)
    I     Atom           X                Y                Z
 ----------------------------------------------------------------
    1      C      -0.6279470000    -3.8878000000     0.3612850000
    2      C       0.5720380000    -3.7014560000    -0.3314620000
    3      C       0.9396100000    -2.3451700000    -0.5429530000
    4      H       1.1834050000    -4.5452330000    -0.6848930000
    5      C       0.0000000000    -1.4501350000     0.0000000000
    6      S      -1.3230520000    -2.3213340000     0.7634410000
    7      C       2.1922070000    -1.9344390000    -1.2659410000
    8      H       2.7677090000    -2.8197990000    -1.5986950000
    9      H       2.8601000000    -1.3262100000    -0.6207700000
   10      H       1.9676820000    -1.3253740000    -2.1664380000
   11      H      -1.1334360000    -4.8153260000     0.6526450000
   12      C       0.0000000000     0.0000000000     0.0000000000
   13      C      -0.0030810000     0.8446050000     1.1130200000
   14      C      -0.0077720000     2.2355750000     0.8205780000
   15      H      -0.0017430000     0.4565100000     2.1428810000
   16      C      -0.0084270000     2.4837260000    -0.5635880000
   17      S      -0.0036910000     0.9706070000    -1.4647480000
   18      C      -0.0113550000     3.3001810000     1.8823800000
   19      H      -0.0099220000     2.8522330000     2.8949740000
   20      H      -0.9059440000     3.9532250000     1.8081370000
   21      H       0.8789010000     3.9591330000     1.8082300000
   22      H      -0.0117270000     3.4417520000    -1.0971140000
 ----------------------------------------------------------------

   10   -1179.6867882896      5.10e-07  Convergence criterion met
 Total energy in the final basis set =    -1179.6867882896
        RIMP2         total energy =     -1181.6646823599 a.u.

                    Orbital Energies (a.u.)
 --------------------------------------------------------------

 Alpha MOs
 -- Occupied --
-91.9862 -91.9856 -11.2806 -11.2748 -11.2726 -11.2648 -11.2531 -11.2512
-11.2426 -11.2413 -11.2290 -11.2289  -8.9856  -8.9851  -6.6665  -6.6660
 -6.6660  -6.6654  -6.6654  -6.6648  -1.1785  -1.1498  -1.0396  -1.0229
 -0.9978  -0.9533  -0.9139  -0.8928  -0.7997  -0.7581  -0.7258  -0.6944
 -0.6623  -0.6165  -0.5826  -0.5783  -0.5732  -0.5696  -0.5517  -0.5323
 -0.5270  -0.5192  -0.5078  -0.4943  -0.4888  -0.4665  -0.4599  -0.3456
 -0.3436  -0.3345  -0.2894

          Ground-State Mulliken Net Atomic Charges

     Atom                 Charge (a.u.)
  ----------------------------------------
      1 C                    -0.214381
      2 C                    -0.248617
      3 C                     0.033130
      4 H                     0.185399
      5 C                    -0.033122
      6 S                     0.025145
      7 C                    -0.287152
      8 H                     0.109124
      9 H                     0.112538
     10 H                     0.110711
     11 H                     0.204420
     12 C                     0.002535
     13 C                    -0.239051
     14 C                     0.020051
     15 H                     0.187591
     16 C                    -0.238963
     17 S                     0.023972
     18 C                    -0.271178
     19 H                     0.103011
     20 H                     0.108354
     21 H                     0.107977
     22 H                     0.198508
  ----------------------------------------
  Sum of atomic charges =     0.000000

                    Cartesian Multipole Moments
 -----------------------------------------------------------------
    Charge (ESU x 10^10)
                -0.0000
    Dipole Moment (Debye)
         X       1.3009      Y       0.2309      Z       0.6894
       Tot       1.4903
    Quadrupole Moments (Debye-Ang)
        XX     -87.7973     XY      -1.9495     YY     -68.7471
        XZ      -2.9286     YZ       2.2622     ZZ     -85.0344

 Total job time:  54.11s(wall), 1813.54s(cpu)
        *  Thank you very much for using Q-Chem.  Have a nice day.  *
