 Q-Chem 5.4, Q-Chem, Inc., Pleasanton, CA (2021)
 Q-Chem 5.4.0 for Intel X86 EM64T Linux

User input:
--------------------------------------------------------------
$molecule
0 1
C	0.724460	-3.887800	0.001092
C	-0.661131	-3.701456	0.001036
C	-1.085203	-2.345170	0.000406
H	-1.367305	-4.545233	0.001433
C	0.000000	-1.450135	0.000000
S	1.527517	-2.321334	0.000367
C	-2.531478	-1.934439	0.000233
H	-3.196254	-2.819799	0.000656
H	-2.787305	-1.326210	-0.892447
H	-2.787282	-1.325374	0.892350
H	1.307907	-4.815326	0.001511
C	0.000000	0.000000	0.000000
C	0.285976	0.794723	1.113020
C	0.757308	2.103412	0.820578
H	0.154498	0.429575	2.142881
C	0.841565	2.336821	-0.563588
S	0.328498	0.913334	-1.464748
C	1.118059	3.105040	1.882380
H	0.966197	2.683616	2.894974
H	0.500773	4.024668	1.808137
H	2.180000	3.419766	1.808230
H	1.166129	3.238200	-1.097114
$end

$rem
JOBTYPE		SP
EXCHANGE	HF
CORRELATION	pRIMP2
BASIS		cc-pvtz
METHOD		rimp2
AUX_BASIS	rimp2-cc-pvtz
SOLVENT_METHOD	PCM
PURECART	11111
SYMMETRY	false
MEM_TOTAL	110000
SCF_CONVERGENCE = 6
THRESH=10
GUI = 2
$end

$solvent
dielectric 4.90
$end
--------------------------------------------------------------

             Standard Nuclear Orientation (Angstroms)
    I     Atom           X                Y                Z
 ----------------------------------------------------------------
    1      C       0.7244600000    -3.8878000000     0.0010920000
    2      C      -0.6611310000    -3.7014560000     0.0010360000
    3      C      -1.0852030000    -2.3451700000     0.0004060000
    4      H      -1.3673050000    -4.5452330000     0.0014330000
    5      C       0.0000000000    -1.4501350000     0.0000000000
    6      S       1.5275170000    -2.3213340000     0.0003670000
    7      C      -2.5314780000    -1.9344390000     0.0002330000
    8      H      -3.1962540000    -2.8197990000     0.0006560000
    9      H      -2.7873050000    -1.3262100000    -0.8924470000
   10      H      -2.7872820000    -1.3253740000     0.8923500000
   11      H       1.3079070000    -4.8153260000     0.0015110000
   12      C       0.0000000000     0.0000000000     0.0000000000
   13      C       0.2859760000     0.7947230000     1.1130200000
   14      C       0.7573080000     2.1034120000     0.8205780000
   15      H       0.1544980000     0.4295750000     2.1428810000
   16      C       0.8415650000     2.3368210000    -0.5635880000
   17      S       0.3284980000     0.9133340000    -1.4647480000
   18      C       1.1180590000     3.1050400000     1.8823800000
   19      H       0.9661970000     2.6836160000     2.8949740000
   20      H       0.5007730000     4.0246680000     1.8081370000
   21      H       2.1800000000     3.4197660000     1.8082300000
   22      H       1.1661290000     3.2382000000    -1.0971140000
 ----------------------------------------------------------------

   10   -1179.6787653878      5.05e-07  Convergence criterion met
 Total energy in the final basis set =    -1179.6787653878
        RIMP2         total energy =     -1181.6576832464 a.u.

                    Orbital Energies (a.u.)
 --------------------------------------------------------------

 Alpha MOs
 -- Occupied --
-91.9849 -91.9844 -11.2759 -11.2723 -11.2721 -11.2675 -11.2517 -11.2510
-11.2438 -11.2411 -11.2292 -11.2288  -8.9845  -8.9840  -6.6653  -6.6649
 -6.6648  -6.6643  -6.6642  -6.6637  -1.1783  -1.1492  -1.0393  -1.0223
 -0.9967  -0.9534  -0.9128  -0.8922  -0.7993  -0.7529  -0.7306  -0.6936
 -0.6614  -0.6168  -0.5827  -0.5792  -0.5702  -0.5690  -0.5511  -0.5313
 -0.5291  -0.5188  -0.5075  -0.4921  -0.4848  -0.4642  -0.4634  -0.3487
 -0.3358  -0.3125  -0.3109

          Ground-State Mulliken Net Atomic Charges

     Atom                 Charge (a.u.)
  ----------------------------------------
      1 C                    -0.205015
      2 C                    -0.253453
      3 C                     0.059824
      4 H                     0.184009
      5 C                    -0.064840
      6 S                     0.026788
      7 C                    -0.284429
      8 H                     0.106582
      9 H                     0.110536
     10 H                     0.109504
     11 H                     0.204033
     12 C                    -0.007746
     13 C                    -0.234743
     14 C                     0.027351
     15 H                     0.184167
     16 C                    -0.235313
     17 S                     0.025675
     18 C                    -0.270080
     19 H                     0.102861
     20 H                     0.107755
     21 H                     0.108115
     22 H                     0.198419
  ----------------------------------------
  Sum of atomic charges =     0.000000

                    Cartesian Multipole Moments
 -----------------------------------------------------------------
    Charge (ESU x 10^10)
                -0.0000
    Dipole Moment (Debye)
         X      -0.8056      Y       0.3272      Z       1.5005
       Tot       1.7342
    Quadrupole Moments (Debye-Ang)
        XX     -84.8768     XY       5.7661     YY     -70.1707
        XZ       0.4054     YZ       1.0378     ZZ     -86.6602

 Total job time:  51.30s(wall), 1763.31s(cpu)
        *  Thank you very much for using Q-Chem.  Have a nice day.  *
