 Q-Chem 5.4, Q-Chem, Inc., Pleasanton, CA (2021)
 Q-Chem 5.4.0 for Intel X86 EM64T Linux

User input:
--------------------------------------------------------------
$molecule
0 1
C	-0.680396	-3.887800	-0.248806
C	0.621614	-3.701456	0.225147
C	1.019896	-2.345170	0.370780
H	1.285337	-4.545233	0.466300
C	0.000000	-1.450135	0.000000
S	-1.435271	-2.321334	-0.522786
C	2.378891	-1.934439	0.865597
H	3.003720	-2.819799	1.092567
H	2.313975	-1.326210	1.791940
H	2.924390	-1.325374	0.114772
H	-1.228514	-4.815326	-0.448750
C	0.000000	0.000000	0.000000
C	0.354153	0.766774	1.113020
C	0.937751	2.029404	0.820578
H	0.191350	0.414475	2.142881
C	1.042030	2.254581	-0.563588
S	0.406851	0.881228	-1.464748
C	1.384426	2.995779	1.882380
H	1.196413	2.589194	2.894974
H	0.849641	3.965707	1.808137
H	2.469756	3.216753	1.808230
H	1.443919	3.124243	-1.097114
$end

$rem
JOBTYPE		SP
EXCHANGE	HF
CORRELATION	pRIMP2
BASIS		cc-pvtz
METHOD		rimp2
AUX_BASIS	rimp2-cc-pvtz
SOLVENT_METHOD	PCM
PURECART	11111
SYMMETRY	false
MEM_TOTAL	110000
SCF_CONVERGENCE = 6
THRESH=10
GUI = 2
$end

$solvent
dielectric 4.90
$end
--------------------------------------------------------------

             Standard Nuclear Orientation (Angstroms)
    I     Atom           X                Y                Z
 ----------------------------------------------------------------
    1      C      -0.6803960000    -3.8878000000    -0.2488060000
    2      C       0.6216140000    -3.7014560000     0.2251470000
    3      C       1.0198960000    -2.3451700000     0.3707800000
    4      H       1.2853370000    -4.5452330000     0.4663000000
    5      C       0.0000000000    -1.4501350000     0.0000000000
    6      S      -1.4352710000    -2.3213340000    -0.5227860000
    7      C       2.3788910000    -1.9344390000     0.8655970000
    8      H       3.0037200000    -2.8197990000     1.0925670000
    9      H       2.3139750000    -1.3262100000     1.7919400000
   10      H       2.9243900000    -1.3253740000     0.1147720000
   11      H      -1.2285140000    -4.8153260000    -0.4487500000
   12      C       0.0000000000     0.0000000000     0.0000000000
   13      C       0.3541530000     0.7667740000     1.1130200000
   14      C       0.9377510000     2.0294040000     0.8205780000
   15      H       0.1913500000     0.4144750000     2.1428810000
   16      C       1.0420300000     2.2545810000    -0.5635880000
   17      S       0.4068510000     0.8812280000    -1.4647480000
   18      C       1.3844260000     2.9957790000     1.8823800000
   19      H       1.1964130000     2.5891940000     2.8949740000
   20      H       0.8496410000     3.9657070000     1.8081370000
   21      H       2.4697560000     3.2167530000     1.8082300000
   22      H       1.4439190000     3.1242430000    -1.0971140000
 ----------------------------------------------------------------

   10   -1179.6750541972      5.67e-07  Convergence criterion met
 Total energy in the final basis set =    -1179.6750541972
        RIMP2         total energy =     -1181.6567031092 a.u.

                    Orbital Energies (a.u.)
 --------------------------------------------------------------

 Alpha MOs
 -- Occupied --
-91.9849 -91.9825 -11.2743 -11.2733 -11.2712 -11.2693 -11.2524 -11.2516
-11.2448 -11.2416 -11.2297 -11.2283  -8.9845  -8.9822  -6.6654  -6.6648
 -6.6643  -6.6631  -6.6626  -6.6620  -1.1790  -1.1491  -1.0400  -1.0220
 -0.9965  -0.9542  -0.9128  -0.8923  -0.7984  -0.7518  -0.7324  -0.6960
 -0.6605  -0.6167  -0.5831  -0.5800  -0.5713  -0.5670  -0.5508  -0.5323
 -0.5281  -0.5209  -0.5093  -0.4915  -0.4820  -0.4644  -0.4607  -0.3437
 -0.3406  -0.3285  -0.2962

          Ground-State Mulliken Net Atomic Charges

     Atom                 Charge (a.u.)
  ----------------------------------------
      1 C                    -0.211813
      2 C                    -0.253081
      3 C                     0.071499
      4 H                     0.184853
      5 C                    -0.038947
      6 S                     0.021808
      7 C                    -0.283483
      8 H                     0.110665
      9 H                     0.108978
     10 H                     0.114655
     11 H                     0.203505
     12 C                    -0.044414
     13 C                    -0.254691
     14 C                     0.039965
     15 H                     0.190471
     16 C                    -0.236523
     17 S                     0.027767
     18 C                    -0.269578
     19 H                     0.102825
     20 H                     0.108642
     21 H                     0.107563
     22 H                     0.199335
  ----------------------------------------
  Sum of atomic charges =     0.000000

                    Cartesian Multipole Moments
 -----------------------------------------------------------------
    Charge (ESU x 10^10)
                -0.0000
    Dipole Moment (Debye)
         X       2.3530      Y       0.3981      Z       2.0598
       Tot       3.1524
    Quadrupole Moments (Debye-Ang)
        XX     -85.0895     XY       2.0970     YY     -70.9953
        XZ       2.5461     YZ       0.2017     ZZ     -85.8928

 Total job time:  55.15s(wall), 1828.77s(cpu)
        *  Thank you very much for using Q-Chem.  Have a nice day.  *
