 Q-Chem 5.4, Q-Chem, Inc., Pleasanton, CA (2021)
 Q-Chem 5.4.0 for Intel X86 EM64T Linux

User input:
--------------------------------------------------------------
$molecule
0 1
C	-0.124726	-3.887800	-0.713644
C	0.115824	-3.701456	0.650907
C	0.188844	-2.345170	1.068646
H	0.238841	-4.545233	1.346284
C	0.000000	-1.450135	0.000000
S	-0.264890	-2.321334	-1.504375
C	0.439816	-1.934439	2.492978
H	0.555669	-2.819799	3.147582
H	-0.394879	-1.326210	2.899931
H	1.362799	-1.325374	2.589982
H	-0.225628	-4.815326	-1.288299
C	0.000000	0.000000	0.000000
C	0.419634	0.732990	1.113020
C	1.111057	1.939951	0.820578
H	0.226746	0.396221	2.142881
C	1.234565	2.155183	-0.563588
S	0.482106	0.842416	-1.464748
C	1.640257	2.863718	1.882380
H	1.417524	2.475067	2.894974
H	1.192042	3.876565	1.808137
H	2.740717	2.989259	1.808230
H	1.710720	2.986508	-1.097114
$end

$rem
JOBTYPE		SP
EXCHANGE	HF
CORRELATION	pRIMP2
BASIS		cc-pvtz
METHOD		rimp2
AUX_BASIS	rimp2-cc-pvtz
SOLVENT_METHOD	PCM
PURECART	11111
SYMMETRY	false
MEM_TOTAL	110000
SCF_CONVERGENCE = 6
THRESH=10
GUI = 2
$end

$solvent
dielectric 4.90
$end
--------------------------------------------------------------

             Standard Nuclear Orientation (Angstroms)
    I     Atom           X                Y                Z
 ----------------------------------------------------------------
    1      C      -0.1247260000    -3.8878000000    -0.7136440000
    2      C       0.1158240000    -3.7014560000     0.6509070000
    3      C       0.1888440000    -2.3451700000     1.0686460000
    4      H       0.2388410000    -4.5452330000     1.3462840000
    5      C       0.0000000000    -1.4501350000     0.0000000000
    6      S      -0.2648900000    -2.3213340000    -1.5043750000
    7      C       0.4398160000    -1.9344390000     2.4929780000
    8      H       0.5556690000    -2.8197990000     3.1475820000
    9      H      -0.3948790000    -1.3262100000     2.8999310000
   10      H       1.3627990000    -1.3253740000     2.5899820000
   11      H      -0.2256280000    -4.8153260000    -1.2882990000
   12      C       0.0000000000     0.0000000000     0.0000000000
   13      C       0.4196340000     0.7329900000     1.1130200000
   14      C       1.1110570000     1.9399510000     0.8205780000
   15      H       0.2267460000     0.3962210000     2.1428810000
   16      C       1.2345650000     2.1551830000    -0.5635880000
   17      S       0.4821060000     0.8424160000    -1.4647480000
   18      C       1.6402570000     2.8637180000     1.8823800000
   19      H       1.4175240000     2.4750670000     2.8949740000
   20      H       1.1920420000     3.8765650000     1.8081370000
   21      H       2.7407170000     2.9892590000     1.8082300000
   22      H       1.7107200000     2.9865080000    -1.0971140000
 ----------------------------------------------------------------

   10   -1179.6657552783      5.37e-07  Convergence criterion met
 Total energy in the final basis set =    -1179.6657552783
        RIMP2         total energy =     -1181.6509318359 a.u.

                    Orbital Energies (a.u.)
 --------------------------------------------------------------

 Alpha MOs
 -- Occupied --
-91.9849 -91.9825 -11.2794 -11.2778 -11.2707 -11.2693 -11.2528 -11.2493
-11.2440 -11.2427 -11.2306 -11.2302  -8.9849  -8.9825  -6.6658  -6.6652
 -6.6646  -6.6635  -6.6629  -6.6623  -1.1827  -1.1495  -1.0422  -1.0269
 -0.9954  -0.9552  -0.9145  -0.8949  -0.8004  -0.7558  -0.7280  -0.7022
 -0.6593  -0.6149  -0.5933  -0.5826  -0.5706  -0.5620  -0.5507  -0.5409
 -0.5293  -0.5231  -0.5035  -0.4917  -0.4821  -0.4747  -0.4505  -0.3685
 -0.3476  -0.3365  -0.2679

          Ground-State Mulliken Net Atomic Charges

     Atom                 Charge (a.u.)
  ----------------------------------------
      1 C                    -0.220676
      2 C                    -0.248438
      3 C                     0.055542
      4 H                     0.185183
      5 C                    -0.037543
      6 S                     0.006890
      7 C                    -0.309423
      8 H                     0.117259
      9 H                     0.104911
     10 H                     0.111909
     11 H                     0.205362
     12 C                     0.020893
     13 C                    -0.260900
     14 C                     0.039632
     15 H                     0.198836
     16 C                    -0.240458
     17 S                     0.020224
     18 C                    -0.269243
     19 H                     0.101831
     20 H                     0.109214
     21 H                     0.108662
     22 H                     0.200333
  ----------------------------------------
  Sum of atomic charges =     0.000000

                    Cartesian Multipole Moments
 -----------------------------------------------------------------
    Charge (ESU x 10^10)
                -0.0000
    Dipole Moment (Debye)
         X       1.3739      Y       0.4984      Z       3.0483
       Tot       3.3806
    Quadrupole Moments (Debye-Ang)
        XX     -89.6614     XY       4.5366     YY     -72.0200
        XZ       1.6834     YZ      -1.3976     ZZ     -80.2862

 Total job time:  47.98s(wall), 1736.68s(cpu)
        *  Thank you very much for using Q-Chem.  Have a nice day.  *
