 Q-Chem 5.4, Q-Chem, Inc., Pleasanton, CA (2021)
 Q-Chem 5.4.0 for Intel X86 EM64T Linux

User input:
--------------------------------------------------------------
$molecule
0 1
C	0.713264	-3.887800	0.126876
C	-0.651267	-3.701456	-0.113784
C	-1.068787	-2.345170	-0.188043
H	-1.346782	-4.545233	-0.236019
C	0.000000	-1.450135	0.000000
S	1.504247	-2.321334	0.265612
C	-2.493059	-1.934439	-0.439357
H	-3.147809	-2.819799	-0.554378
H	-2.589987	-1.326210	-1.362899
H	-2.899892	-1.325374	0.394786
H	1.287774	-4.815326	0.228603
C	0.000000	0.000000	0.000000
C	0.143630	0.832309	1.113020
C	0.380550	2.202961	0.820578
H	0.077556	0.449877	2.142881
C	0.422995	2.447456	-0.563588
S	0.164909	0.956502	-1.464748
C	0.561888	3.252016	1.882380
H	0.485513	2.810624	2.894974
H	-0.205711	4.050482	1.808137
H	1.553045	3.746365	1.808230
H	0.586105	3.391501	-1.097114
$end

$rem
JOBTYPE		SP
EXCHANGE	HF
CORRELATION	pRIMP2
BASIS		cc-pvtz
METHOD		rimp2
AUX_BASIS	rimp2-cc-pvtz
SOLVENT_METHOD	PCM
PURECART	11111
SYMMETRY	false
MEM_TOTAL	110000
SCF_CONVERGENCE = 6
THRESH=10
GUI = 2
$end

$solvent
dielectric 4.90
$end
--------------------------------------------------------------

             Standard Nuclear Orientation (Angstroms)
    I     Atom           X                Y                Z
 ----------------------------------------------------------------
    1      C       0.7132640000    -3.8878000000     0.1268760000
    2      C      -0.6512670000    -3.7014560000    -0.1137840000
    3      C      -1.0687870000    -2.3451700000    -0.1880430000
    4      H      -1.3467820000    -4.5452330000    -0.2360190000
    5      C       0.0000000000    -1.4501350000     0.0000000000
    6      S       1.5042470000    -2.3213340000     0.2656120000
    7      C      -2.4930590000    -1.9344390000    -0.4393570000
    8      H      -3.1478090000    -2.8197990000    -0.5543780000
    9      H      -2.5899870000    -1.3262100000    -1.3628990000
   10      H      -2.8998920000    -1.3253740000     0.3947860000
   11      H       1.2877740000    -4.8153260000     0.2286030000
   12      C       0.0000000000     0.0000000000     0.0000000000
   13      C       0.1436300000     0.8323090000     1.1130200000
   14      C       0.3805500000     2.2029610000     0.8205780000
   15      H       0.0775560000     0.4498770000     2.1428810000
   16      C       0.4229950000     2.4474560000    -0.5635880000
   17      S       0.1649090000     0.9565020000    -1.4647480000
   18      C       0.5618880000     3.2520160000     1.8823800000
   19      H       0.4855130000     2.8106240000     2.8949740000
   20      H      -0.2057110000     4.0504820000     1.8081370000
   21      H       1.5530450000     3.7463650000     1.8082300000
   22      H       0.5861050000     3.3915010000    -1.0971140000
 ----------------------------------------------------------------

   10   -1179.6845107069      5.05e-07  Convergence criterion met
 Total energy in the final basis set =    -1179.6845107069
        RIMP2         total energy =     -1181.6621755030 a.u.

                    Orbital Energies (a.u.)
 --------------------------------------------------------------

 Alpha MOs
 -- Occupied --
-91.9854 -91.9853 -11.2784 -11.2729 -11.2728 -11.2655 -11.2531 -11.2509
-11.2420 -11.2419 -11.2291 -11.2290  -8.9849  -8.9847  -6.6658  -6.6656
 -6.6653  -6.6651  -6.6646  -6.6645  -1.1778  -1.1495  -1.0391  -1.0227
 -0.9970  -0.9534  -0.9134  -0.8923  -0.7997  -0.7547  -0.7288  -0.6940
 -0.6621  -0.6166  -0.5824  -0.5789  -0.5710  -0.5692  -0.5514  -0.5316
 -0.5282  -0.5192  -0.5070  -0.4928  -0.4880  -0.4648  -0.4625  -0.3463
 -0.3380  -0.3209  -0.3043

          Ground-State Mulliken Net Atomic Charges

     Atom                 Charge (a.u.)
  ----------------------------------------
      1 C                    -0.208065
      2 C                    -0.251257
      3 C                     0.049327
      4 H                     0.184846
      5 C                    -0.054388
      6 S                     0.025848
      7 C                    -0.283039
      8 H                     0.106725
      9 H                     0.109855
     10 H                     0.110298
     11 H                     0.204202
     12 C                    -0.000455
     13 C                    -0.236363
     14 C                     0.023131
     15 H                     0.185723
     16 C                    -0.238208
     17 S                     0.025380
     18 C                    -0.270877
     19 H                     0.102841
     20 H                     0.107809
     21 H                     0.108322
     22 H                     0.198343
  ----------------------------------------
  Sum of atomic charges =     0.000000

                    Cartesian Multipole Moments
 -----------------------------------------------------------------
    Charge (ESU x 10^10)
                -0.0000
    Dipole Moment (Debye)
         X      -1.1561      Y       0.2439      Z       1.2088
       Tot       1.6904
    Quadrupole Moments (Debye-Ang)
        XX     -85.9928     XY       4.0386     YY     -69.0509
        XZ       1.3591     YZ       1.5081     ZZ     -86.5321

 Total job time:  55.23s(wall), 1893.66s(cpu)
        *  Thank you very much for using Q-Chem.  Have a nice day.  *
