 Q-Chem 5.4, Q-Chem, Inc., Pleasanton, CA (2021)
 Q-Chem 5.4.0 for Intel X86 EM64T Linux

User input:
--------------------------------------------------------------
$molecule
0 1
C	0.464838	-3.887800	0.555670
C	-0.425760	-3.701456	-0.505790
C	-0.697866	-2.345170	-0.831053
H	-0.879984	-4.545233	-1.046496
C	0.000000	-1.450135	0.000000
S	0.981588	-2.321334	1.170382
C	-1.627381	-1.934439	-1.939074
H	-2.055015	-2.819799	-2.448051
H	-1.107991	-1.326210	-2.708853
H	-2.475210	-1.325374	-1.561590
H	0.839549	-4.815326	1.002886
C	0.000000	0.000000	0.000000
C	0.419634	0.732990	1.113020
C	1.111057	1.939951	0.820578
H	0.226746	0.396221	2.142881
C	1.234565	2.155183	-0.563588
S	0.482106	0.842416	-1.464748
C	1.640257	2.863718	1.882380
H	1.417524	2.475067	2.894974
H	1.192042	3.876565	1.808137
H	2.740717	2.989259	1.808230
H	1.710720	2.986508	-1.097114
$end

$rem
JOBTYPE		SP
EXCHANGE	HF
CORRELATION	pRIMP2
BASIS		cc-pvtz
METHOD		rimp2
AUX_BASIS	rimp2-cc-pvtz
SOLVENT_METHOD	PCM
PURECART	11111
SYMMETRY	false
MEM_TOTAL	110000
SCF_CONVERGENCE = 6
THRESH=10
GUI = 2
$end

$solvent
dielectric 4.90
$end
--------------------------------------------------------------

             Standard Nuclear Orientation (Angstroms)
    I     Atom           X                Y                Z
 ----------------------------------------------------------------
    1      C       0.4648380000    -3.8878000000     0.5556700000
    2      C      -0.4257600000    -3.7014560000    -0.5057900000
    3      C      -0.6978660000    -2.3451700000    -0.8310530000
    4      H      -0.8799840000    -4.5452330000    -1.0464960000
    5      C       0.0000000000    -1.4501350000     0.0000000000
    6      S       0.9815880000    -2.3213340000     1.1703820000
    7      C      -1.6273810000    -1.9344390000    -1.9390740000
    8      H      -2.0550150000    -2.8197990000    -2.4480510000
    9      H      -1.1079910000    -1.3262100000    -2.7088530000
   10      H      -2.4752100000    -1.3253740000    -1.5615900000
   11      H       0.8395490000    -4.8153260000     1.0028860000
   12      C       0.0000000000     0.0000000000     0.0000000000
   13      C       0.4196340000     0.7329900000     1.1130200000
   14      C       1.1110570000     1.9399510000     0.8205780000
   15      H       0.2267460000     0.3962210000     2.1428810000
   16      C       1.2345650000     2.1551830000    -0.5635880000
   17      S       0.4821060000     0.8424160000    -1.4647480000
   18      C       1.6402570000     2.8637180000     1.8823800000
   19      H       1.4175240000     2.4750670000     2.8949740000
   20      H       1.1920420000     3.8765650000     1.8081370000
   21      H       2.7407170000     2.9892590000     1.8082300000
   22      H       1.7107200000     2.9865080000    -1.0971140000
 ----------------------------------------------------------------

   10   -1179.6718115704      5.19e-07  Convergence criterion met
 Total energy in the final basis set =    -1179.6718115704
        RIMP2         total energy =     -1181.6544905179 a.u.

                    Orbital Energies (a.u.)
 --------------------------------------------------------------

 Alpha MOs
 -- Occupied --
-91.9851 -91.9847 -11.2762 -11.2748 -11.2706 -11.2694 -11.2528 -11.2481
-11.2452 -11.2414 -11.2297 -11.2290  -8.9849  -8.9843  -6.6658  -6.6652
 -6.6651  -6.6646  -6.6646  -6.6640  -1.1812  -1.1492  -1.0413  -1.0228
 -0.9990  -0.9513  -0.9145  -0.8930  -0.7984  -0.7615  -0.7241  -0.6925
 -0.6611  -0.6172  -0.5832  -0.5795  -0.5755  -0.5699  -0.5512  -0.5337
 -0.5258  -0.5183  -0.5084  -0.4958  -0.4830  -0.4679  -0.4568  -0.3533
 -0.3428  -0.3413  -0.2767

          Ground-State Mulliken Net Atomic Charges

     Atom                 Charge (a.u.)
  ----------------------------------------
      1 C                    -0.219927
      2 C                    -0.247062
      3 C                     0.031406
      4 H                     0.184275
      5 C                    -0.014318
      6 S                     0.020435
      7 C                    -0.299482
      8 H                     0.110679
      9 H                     0.110731
     10 H                     0.113130
     11 H                     0.204025
     12 C                     0.018915
     13 C                    -0.308011
     14 C                     0.058363
     15 H                     0.189358
     16 C                    -0.241328
     17 S                     0.037720
     18 C                    -0.267900
     19 H                     0.103385
     20 H                     0.108226
     21 H                     0.108844
     22 H                     0.198535
  ----------------------------------------
  Sum of atomic charges =     0.000000

                    Cartesian Multipole Moments
 -----------------------------------------------------------------
    Charge (ESU x 10^10)
                -0.0000
    Dipole Moment (Debye)
         X       0.1340      Y       0.4595      Z       0.3616
       Tot       0.5999
    Quadrupole Moments (Debye-Ang)
        XX     -87.1801     XY       6.4491     YY     -71.8993
        XZ       3.8017     YZ       2.7313     ZZ     -82.6796

 Total job time:  47.28s(wall), 1698.79s(cpu)
        *  Thank you very much for using Q-Chem.  Have a nice day.  *
