 Q-Chem 5.4, Q-Chem, Inc., Pleasanton, CA (2021)
 Q-Chem 5.4.0 for Intel X86 EM64T Linux

User input:
--------------------------------------------------------------
$molecule
0 1
C	0.001092	-3.887800	-0.724460
C	0.001036	-3.701456	0.661131
C	0.000406	-2.345170	1.085203
H	0.001433	-4.545233	1.367305
C	0.000000	-1.450135	0.000000
S	0.000367	-2.321334	-1.527517
C	0.000233	-1.934439	2.531478
H	0.000656	-2.819799	3.196254
H	-0.892447	-1.326210	2.787305
H	0.892350	-1.325374	2.787282
H	0.001511	-4.815326	-1.307907
C	0.000000	0.000000	0.000000
C	0.143630	0.832309	1.113020
C	0.380550	2.202961	0.820578
H	0.077556	0.449877	2.142881
C	0.422995	2.447456	-0.563588
S	0.164909	0.956502	-1.464748
C	0.561888	3.252016	1.882380
H	0.485513	2.810624	2.894974
H	-0.205711	4.050482	1.808137
H	1.553045	3.746365	1.808230
H	0.586105	3.391501	-1.097114
$end

$rem
JOBTYPE		SP
EXCHANGE	HF
CORRELATION	pRIMP2
BASIS		cc-pvtz
METHOD		rimp2
AUX_BASIS	rimp2-cc-pvtz
SOLVENT_METHOD	PCM
PURECART	11111
SYMMETRY	false
MEM_TOTAL	110000
SCF_CONVERGENCE = 6
THRESH=10
GUI = 2
$end

$solvent
dielectric 4.90
$end
--------------------------------------------------------------

             Standard Nuclear Orientation (Angstroms)
    I     Atom           X                Y                Z
 ----------------------------------------------------------------
    1      C       0.0010920000    -3.8878000000    -0.7244600000
    2      C       0.0010360000    -3.7014560000     0.6611310000
    3      C       0.0004060000    -2.3451700000     1.0852030000
    4      H       0.0014330000    -4.5452330000     1.3673050000
    5      C       0.0000000000    -1.4501350000     0.0000000000
    6      S       0.0003670000    -2.3213340000    -1.5275170000
    7      C       0.0002330000    -1.9344390000     2.5314780000
    8      H       0.0006560000    -2.8197990000     3.1962540000
    9      H      -0.8924470000    -1.3262100000     2.7873050000
   10      H       0.8923500000    -1.3253740000     2.7872820000
   11      H       0.0015110000    -4.8153260000    -1.3079070000
   12      C       0.0000000000     0.0000000000     0.0000000000
   13      C       0.1436300000     0.8323090000     1.1130200000
   14      C       0.3805500000     2.2029610000     0.8205780000
   15      H       0.0775560000     0.4498770000     2.1428810000
   16      C       0.4229950000     2.4474560000    -0.5635880000
   17      S       0.1649090000     0.9565020000    -1.4647480000
   18      C       0.5618880000     3.2520160000     1.8823800000
   19      H       0.4855130000     2.8106240000     2.8949740000
   20      H      -0.2057110000     4.0504820000     1.8081370000
   21      H       1.5530450000     3.7463650000     1.8082300000
   22      H       0.5861050000     3.3915010000    -1.0971140000
 ----------------------------------------------------------------

   10   -1179.6830257817      5.04e-07  Convergence criterion met
 Total energy in the final basis set =    -1179.6830257817
        RIMP2         total energy =     -1181.6635852161 a.u.

                    Orbital Energies (a.u.)
 --------------------------------------------------------------

 Alpha MOs
 -- Occupied --
-91.9860 -91.9858 -11.2840 -11.2797 -11.2729 -11.2647 -11.2536 -11.2522
-11.2444 -11.2390 -11.2319 -11.2296  -8.9857  -8.9857  -6.6667  -6.6666
 -6.6661  -6.6661  -6.6655  -6.6654  -1.1813  -1.1505  -1.0413  -1.0282
 -0.9957  -0.9559  -0.9152  -0.8952  -0.8024  -0.7566  -0.7268  -0.7018
 -0.6618  -0.6146  -0.5919  -0.5826  -0.5701  -0.5632  -0.5515  -0.5405
 -0.5298  -0.5233  -0.5030  -0.4919  -0.4886  -0.4770  -0.4513  -0.3705
 -0.3478  -0.3377  -0.2692

          Ground-State Mulliken Net Atomic Charges

     Atom                 Charge (a.u.)
  ----------------------------------------
      1 C                    -0.213038
      2 C                    -0.254359
      3 C                     0.071798
      4 H                     0.185371
      5 C                    -0.049757
      6 S                     0.008662
      7 C                    -0.314717
      8 H                     0.120368
      9 H                     0.109768
     10 H                     0.108974
     11 H                     0.207272
     12 C                     0.038953
     13 C                    -0.242938
     14 C                     0.024469
     15 H                     0.195462
     16 C                    -0.250986
     17 S                     0.006534
     18 C                    -0.271136
     19 H                     0.101182
     20 H                     0.108558
     21 H                     0.109021
     22 H                     0.200540
  ----------------------------------------
  Sum of atomic charges =     0.000000

                    Cartesian Multipole Moments
 -----------------------------------------------------------------
    Charge (ESU x 10^10)
                -0.0000
    Dipole Moment (Debye)
         X       0.3228      Y       0.1399      Z       2.9905
       Tot       3.0111
    Quadrupole Moments (Debye-Ang)
        XX     -92.4786     XY       1.8542     YY     -68.6388
        XZ       0.2075     YZ      -1.2007     ZZ     -79.9977

 Total job time:  51.60s(wall), 1805.04s(cpu)
        *  Thank you very much for using Q-Chem.  Have a nice day.  *
