 Q-Chem 5.4, Q-Chem, Inc., Pleasanton, CA (2021)
 Q-Chem 5.4.0 for Intel X86 EM64T Linux

User input:
--------------------------------------------------------------
$molecule
0 1
C	-0.248806	-3.887800	0.680396
C	0.225147	-3.701456	-0.621614
C	0.370780	-2.345170	-1.019896
H	0.466300	-4.545233	-1.285337
C	-0.000000	-1.450135	-0.000000
S	-0.522786	-2.321334	1.435271
C	0.865597	-1.934439	-2.378891
H	1.092567	-2.819799	-3.003720
H	1.791940	-1.326210	-2.313975
H	0.114772	-1.325374	-2.924390
H	-0.448750	-4.815326	1.228514
C	0.000000	0.000000	0.000000
C	0.070542	0.841660	1.113020
C	0.187101	2.227746	0.820578
H	0.038051	0.454925	2.142881
C	0.208076	2.475009	-0.563588
S	0.080917	0.967235	-1.464748
C	0.276318	3.288613	1.882380
H	0.238704	2.842244	2.894974
H	-0.557951	4.017140	1.808137
H	1.220618	3.867466	1.808230
H	0.288286	3.429678	-1.097114
$end

$rem
JOBTYPE		SP
EXCHANGE	HF
CORRELATION	pRIMP2
BASIS		cc-pvtz
METHOD		rimp2
AUX_BASIS	rimp2-cc-pvtz
SOLVENT_METHOD	PCM
PURECART	11111
SYMMETRY	false
MEM_TOTAL	110000
SCF_CONVERGENCE = 6
THRESH=10
GUI = 2
$end

$solvent
dielectric 4.90
$end
--------------------------------------------------------------

             Standard Nuclear Orientation (Angstroms)
    I     Atom           X                Y                Z
 ----------------------------------------------------------------
    1      C      -0.2488060000    -3.8878000000     0.6803960000
    2      C       0.2251470000    -3.7014560000    -0.6216140000
    3      C       0.3707800000    -2.3451700000    -1.0198960000
    4      H       0.4663000000    -4.5452330000    -1.2853370000
    5      C       0.0000000000    -1.4501350000     0.0000000000
    6      S      -0.5227860000    -2.3213340000     1.4352710000
    7      C       0.8655970000    -1.9344390000    -2.3788910000
    8      H       1.0925670000    -2.8197990000    -3.0037200000
    9      H       1.7919400000    -1.3262100000    -2.3139750000
   10      H       0.1147720000    -1.3253740000    -2.9243900000
   11      H      -0.4487500000    -4.8153260000     1.2285140000
   12      C       0.0000000000     0.0000000000     0.0000000000
   13      C       0.0705420000     0.8416600000     1.1130200000
   14      C       0.1871010000     2.2277460000     0.8205780000
   15      H       0.0380510000     0.4549250000     2.1428810000
   16      C       0.2080760000     2.4750090000    -0.5635880000
   17      S       0.0809170000     0.9672350000    -1.4647480000
   18      C       0.2763180000     3.2886130000     1.8823800000
   19      H       0.2387040000     2.8422440000     2.8949740000
   20      H      -0.5579510000     4.0171400000     1.8081370000
   21      H       1.2206180000     3.8674660000     1.8082300000
   22      H       0.2882860000     3.4296780000    -1.0971140000
 ----------------------------------------------------------------

   10   -1179.6858431094      5.32e-07  Convergence criterion met
 Total energy in the final basis set =    -1179.6858431094
        RIMP2         total energy =     -1181.6658704956 a.u.

                    Orbital Energies (a.u.)
 --------------------------------------------------------------

 Alpha MOs
 -- Occupied --
-91.9860 -91.9853 -11.2842 -11.2786 -11.2732 -11.2624 -11.2535 -11.2519
-11.2438 -11.2393 -11.2298 -11.2289  -8.9857  -8.9850  -6.6667  -6.6661
 -6.6659  -6.6655  -6.6654  -6.6647  -1.1805  -1.1501  -1.0412  -1.0251
 -0.9984  -0.9527  -0.9146  -0.8952  -0.7996  -0.7642  -0.7201  -0.6957
 -0.6630  -0.6161  -0.5839  -0.5805  -0.5772  -0.5696  -0.5525  -0.5334
 -0.5243  -0.5201  -0.5105  -0.4971  -0.4902  -0.4679  -0.4524  -0.3675
 -0.3435  -0.3398  -0.2710

          Ground-State Mulliken Net Atomic Charges

     Atom                 Charge (a.u.)
  ----------------------------------------
      1 C                    -0.212343
      2 C                    -0.253112
      3 C                     0.046412
      4 H                     0.185839
      5 C                    -0.028859
      6 S                     0.013736
      7 C                    -0.316591
      8 H                     0.115191
      9 H                     0.120937
     10 H                     0.111398
     11 H                     0.206466
     12 C                     0.047854
     13 C                    -0.256801
     14 C                     0.024844
     15 H                     0.178320
     16 C                    -0.250135
     17 S                     0.018853
     18 C                    -0.271225
     19 H                     0.102995
     20 H                     0.108504
     21 H                     0.108337
     22 H                     0.199380
  ----------------------------------------
  Sum of atomic charges =     0.000000

                    Cartesian Multipole Moments
 -----------------------------------------------------------------
    Charge (ESU x 10^10)
                -0.0000
    Dipole Moment (Debye)
         X       0.7006      Y       0.0662      Z      -0.0649
       Tot       0.7067
    Quadrupole Moments (Debye-Ang)
        XX     -91.9100     XY       0.0990     YY     -68.7150
        XZ      -2.1446     YZ       3.3351     ZZ     -80.6052

 Total job time:  53.39s(wall), 1798.34s(cpu)
        *  Thank you very much for using Q-Chem.  Have a nice day.  *
