 Q-Chem 5.4, Q-Chem, Inc., Pleasanton, CA (2021)
 Q-Chem 5.4.0 for Intel X86 EM64T Linux

User input:
--------------------------------------------------------------
$molecule
0 1
C	0.246754	-3.887800	0.681143
C	-0.227093	-3.701456	-0.620906
C	-0.371543	-2.345170	-1.019618
H	-0.468992	-4.545233	-1.284357
C	0.000000	-1.450135	0.000000
S	0.522097	-2.321334	1.435522
C	-0.866035	-1.934439	-2.378731
H	-1.093799	-2.819799	-3.003272
H	-0.114688	-1.326210	-2.924444
H	-1.791841	-1.325374	-2.313987
H	0.445911	-4.815326	1.229547
C	0.000000	0.000000	0.000000
C	0.354153	0.766774	1.113020
C	0.937751	2.029404	0.820578
H	0.191350	0.414475	2.142881
C	1.042030	2.254581	-0.563588
S	0.406851	0.881228	-1.464748
C	1.384426	2.995779	1.882380
H	1.196413	2.589194	2.894974
H	0.849641	3.965707	1.808137
H	2.469756	3.216753	1.808230
H	1.443919	3.124243	-1.097114
$end

$rem
JOBTYPE		SP
EXCHANGE	HF
CORRELATION	pRIMP2
BASIS		cc-pvtz
METHOD		rimp2
AUX_BASIS	rimp2-cc-pvtz
SOLVENT_METHOD	PCM
PURECART	11111
SYMMETRY	false
MEM_TOTAL	110000
SCF_CONVERGENCE = 6
THRESH=10
GUI = 2
$end

$solvent
dielectric 4.90
$end
--------------------------------------------------------------

             Standard Nuclear Orientation (Angstroms)
    I     Atom           X                Y                Z
 ----------------------------------------------------------------
    1      C       0.2467540000    -3.8878000000     0.6811430000
    2      C      -0.2270930000    -3.7014560000    -0.6209060000
    3      C      -0.3715430000    -2.3451700000    -1.0196180000
    4      H      -0.4689920000    -4.5452330000    -1.2843570000
    5      C       0.0000000000    -1.4501350000     0.0000000000
    6      S       0.5220970000    -2.3213340000     1.4355220000
    7      C      -0.8660350000    -1.9344390000    -2.3787310000
    8      H      -1.0937990000    -2.8197990000    -3.0032720000
    9      H      -0.1146880000    -1.3262100000    -2.9244440000
   10      H      -1.7918410000    -1.3253740000    -2.3139870000
   11      H       0.4459110000    -4.8153260000     1.2295470000
   12      C       0.0000000000     0.0000000000     0.0000000000
   13      C       0.3541530000     0.7667740000     1.1130200000
   14      C       0.9377510000     2.0294040000     0.8205780000
   15      H       0.1913500000     0.4144750000     2.1428810000
   16      C       1.0420300000     2.2545810000    -0.5635880000
   17      S       0.4068510000     0.8812280000    -1.4647480000
   18      C       1.3844260000     2.9957790000     1.8823800000
   19      H       1.1964130000     2.5891940000     2.8949740000
   20      H       0.8496410000     3.9657070000     1.8081370000
   21      H       2.4697560000     3.2167530000     1.8082300000
   22      H       1.4439190000     3.1242430000    -1.0971140000
 ----------------------------------------------------------------

   10   -1179.6756032978      5.17e-07  Convergence criterion met
 Total energy in the final basis set =    -1179.6756032978
        RIMP2         total energy =     -1181.6583118258 a.u.

                    Orbital Energies (a.u.)
 --------------------------------------------------------------

 Alpha MOs
 -- Occupied --
-91.9853 -91.9846 -11.2802 -11.2775 -11.2705 -11.2673 -11.2530 -11.2500
-11.2432 -11.2426 -11.2295 -11.2295  -8.9852  -8.9844  -6.6660  -6.6655
 -6.6653  -6.6648  -6.6647  -6.6641  -1.1817  -1.1497  -1.0418  -1.0244
 -0.9990  -0.9518  -0.9146  -0.8947  -0.7988  -0.7644  -0.7211  -0.6943
 -0.6620  -0.6168  -0.5837  -0.5802  -0.5784  -0.5700  -0.5521  -0.5338
 -0.5242  -0.5196  -0.5102  -0.4972  -0.4863  -0.4678  -0.4525  -0.3653
 -0.3435  -0.3407  -0.2701

          Ground-State Mulliken Net Atomic Charges

     Atom                 Charge (a.u.)
  ----------------------------------------
      1 C                    -0.217215
      2 C                    -0.249840
      3 C                     0.041794
      4 H                     0.184952
      5 C                    -0.019216
      6 S                     0.010632
      7 C                    -0.316514
      8 H                     0.114755
      9 H                     0.112245
     10 H                     0.118646
     11 H                     0.205411
     12 C                     0.044956
     13 C                    -0.298211
     14 C                     0.053551
     15 H                     0.180722
     16 C                    -0.254088
     17 S                     0.036261
     18 C                    -0.268341
     19 H                     0.103241
     20 H                     0.108410
     21 H                     0.109114
     22 H                     0.198736
  ----------------------------------------
  Sum of atomic charges =     0.000000

                    Cartesian Multipole Moments
 -----------------------------------------------------------------
    Charge (ESU x 10^10)
                -0.0000
    Dipole Moment (Debye)
         X       0.3402      Y       0.3334      Z       0.0241
       Tot       0.4769
    Quadrupole Moments (Debye-Ang)
        XX     -89.9890     XY       5.1081     YY     -70.9342
        XZ       2.6396     YZ       3.3016     ZZ     -80.6284

 Total job time:  51.36s(wall), 1782.68s(cpu)
        *  Thank you very much for using Q-Chem.  Have a nice day.  *
