 Q-Chem 5.4, Q-Chem, Inc., Pleasanton, CA (2021)
 Q-Chem 5.4.0 for Intel X86 EM64T Linux

User input:
--------------------------------------------------------------
$molecule
0 1
C	-0.363176	-3.887800	0.626855
C	0.329669	-3.701456	-0.573074
C	0.542250	-2.345170	-0.940016
H	0.682412	-4.545233	-1.184837
C	-0.000000	-1.450135	-0.000000
S	-0.764076	-2.321334	1.322686
C	1.265537	-1.934439	-2.192440
H	1.597559	-2.819799	-2.768365
H	2.166534	-1.326210	-1.967653
H	0.620843	-1.325374	-2.860032
H	-0.655262	-4.815326	1.131925
C	0.000000	0.000000	0.000000
C	0.070542	0.841660	1.113020
C	0.187101	2.227746	0.820578
H	0.038051	0.454925	2.142881
C	0.208076	2.475009	-0.563588
S	0.080917	0.967235	-1.464748
C	0.276318	3.288613	1.882380
H	0.238704	2.842244	2.894974
H	-0.557951	4.017140	1.808137
H	1.220618	3.867466	1.808230
H	0.288286	3.429678	-1.097114
$end

$rem
JOBTYPE		SP
EXCHANGE	HF
CORRELATION	pRIMP2
BASIS		cc-pvtz
METHOD		rimp2
AUX_BASIS	rimp2-cc-pvtz
SOLVENT_METHOD	PCM
PURECART	11111
SYMMETRY	false
MEM_TOTAL	110000
SCF_CONVERGENCE = 6
THRESH=10
GUI = 2
$end

$solvent
dielectric 4.90
$end
--------------------------------------------------------------

             Standard Nuclear Orientation (Angstroms)
    I     Atom           X                Y                Z
 ----------------------------------------------------------------
    1      C      -0.3631760000    -3.8878000000     0.6268550000
    2      C       0.3296690000    -3.7014560000    -0.5730740000
    3      C       0.5422500000    -2.3451700000    -0.9400160000
    4      H       0.6824120000    -4.5452330000    -1.1848370000
    5      C       0.0000000000    -1.4501350000     0.0000000000
    6      S      -0.7640760000    -2.3213340000     1.3226860000
    7      C       1.2655370000    -1.9344390000    -2.1924400000
    8      H       1.5975590000    -2.8197990000    -2.7683650000
    9      H       2.1665340000    -1.3262100000    -1.9676530000
   10      H       0.6208430000    -1.3253740000    -2.8600320000
   11      H      -0.6552620000    -4.8153260000     1.1319250000
   12      C       0.0000000000     0.0000000000     0.0000000000
   13      C       0.0705420000     0.8416600000     1.1130200000
   14      C       0.1871010000     2.2277460000     0.8205780000
   15      H       0.0380510000     0.4549250000     2.1428810000
   16      C       0.2080760000     2.4750090000    -0.5635880000
   17      S       0.0809170000     0.9672350000    -1.4647480000
   18      C       0.2763180000     3.2886130000     1.8823800000
   19      H       0.2387040000     2.8422440000     2.8949740000
   20      H      -0.5579510000     4.0171400000     1.8081370000
   21      H       1.2206180000     3.8674660000     1.8082300000
   22      H       0.2882860000     3.4296780000    -1.0971140000
 ----------------------------------------------------------------

   10   -1179.6858190223      5.25e-07  Convergence criterion met
 Total energy in the final basis set =    -1179.6858190223
        RIMP2         total energy =     -1181.6654642765 a.u.

                    Orbital Energies (a.u.)
 --------------------------------------------------------------

 Alpha MOs
 -- Occupied --
-91.9861 -91.9853 -11.2834 -11.2779 -11.2728 -11.2633 -11.2530 -11.2517
-11.2435 -11.2399 -11.2293 -11.2290  -8.9858  -8.9850  -6.6667  -6.6661
 -6.6659  -6.6655  -6.6653  -6.6647  -1.1801  -1.1500  -1.0408  -1.0244
 -0.9984  -0.9529  -0.9143  -0.8946  -0.7995  -0.7630  -0.7213  -0.6954
 -0.6627  -0.6162  -0.5835  -0.5787  -0.5773  -0.5697  -0.5522  -0.5331
 -0.5252  -0.5197  -0.5100  -0.4966  -0.4893  -0.4678  -0.4542  -0.3633
 -0.3430  -0.3395  -0.2738

          Ground-State Mulliken Net Atomic Charges

     Atom                 Charge (a.u.)
  ----------------------------------------
      1 C                    -0.213893
      2 C                    -0.250787
      3 C                     0.038830
      4 H                     0.185657
      5 C                    -0.028741
      6 S                     0.017843
      7 C                    -0.309686
      8 H                     0.112553
      9 H                     0.120212
     10 H                     0.111837
     11 H                     0.205640
     12 C                     0.036137
     13 C                    -0.250089
     14 C                     0.021053
     15 H                     0.181531
     16 C                    -0.244878
     17 S                     0.019245
     18 C                    -0.271314
     19 H                     0.103065
     20 H                     0.108448
     21 H                     0.108206
     22 H                     0.199132
  ----------------------------------------
  Sum of atomic charges =     0.000000

                    Cartesian Multipole Moments
 -----------------------------------------------------------------
    Charge (ESU x 10^10)
                -0.0000
    Dipole Moment (Debye)
         X       0.9392      Y       0.1400      Z       0.0732
       Tot       0.9524
    Quadrupole Moments (Debye-Ang)
        XX     -91.0197     XY      -0.2295     YY     -68.8245
        XZ      -2.8796     YZ       3.1043     ZZ     -81.5605

 Total job time:  53.97s(wall), 1936.21s(cpu)
        *  Thank you very much for using Q-Chem.  Have a nice day.  *
