 Q-Chem 5.4, Q-Chem, Inc., Pleasanton, CA (2021)
 Q-Chem 5.4.0 for Intel X86 EM64T Linux

User input:
--------------------------------------------------------------
$molecule
0 1
C	0.246754	-3.887800	0.681143
C	-0.227093	-3.701456	-0.620906
C	-0.371543	-2.345170	-1.019618
H	-0.468992	-4.545233	-1.284357
C	0.000000	-1.450135	0.000000
S	0.522097	-2.321334	1.435522
C	-0.866035	-1.934439	-2.378731
H	-1.093799	-2.819799	-3.003272
H	-0.114688	-1.326210	-2.924444
H	-1.791841	-1.325374	-2.313987
H	0.445911	-4.815326	1.229547
C	0.000000	0.000000	0.000000
C	0.729909	0.424971	1.113020
C	1.932179	1.124518	0.820578
H	0.394478	0.229765	2.142881
C	2.146756	1.249161	-0.563588
S	0.838724	0.488500	-1.464748
C	2.852364	1.659924	1.882380
H	2.465145	1.434710	2.894974
H	2.970621	2.761183	1.808137
H	3.868160	1.218416	1.808230
H	2.974781	1.731032	-1.097114
$end

$rem
JOBTYPE		SP
EXCHANGE	HF
CORRELATION	pRIMP2
BASIS		cc-pvtz
METHOD		rimp2
AUX_BASIS	rimp2-cc-pvtz
SOLVENT_METHOD	PCM
PURECART	11111
SYMMETRY	false
MEM_TOTAL	110000
SCF_CONVERGENCE = 6
THRESH=10
GUI = 2
$end

$solvent
dielectric 4.90
$end
--------------------------------------------------------------

             Standard Nuclear Orientation (Angstroms)
    I     Atom           X                Y                Z
 ----------------------------------------------------------------
    1      C       0.2467540000    -3.8878000000     0.6811430000
    2      C      -0.2270930000    -3.7014560000    -0.6209060000
    3      C      -0.3715430000    -2.3451700000    -1.0196180000
    4      H      -0.4689920000    -4.5452330000    -1.2843570000
    5      C       0.0000000000    -1.4501350000     0.0000000000
    6      S       0.5220970000    -2.3213340000     1.4355220000
    7      C      -0.8660350000    -1.9344390000    -2.3787310000
    8      H      -1.0937990000    -2.8197990000    -3.0032720000
    9      H      -0.1146880000    -1.3262100000    -2.9244440000
   10      H      -1.7918410000    -1.3253740000    -2.3139870000
   11      H       0.4459110000    -4.8153260000     1.2295470000
   12      C       0.0000000000     0.0000000000     0.0000000000
   13      C       0.7299090000     0.4249710000     1.1130200000
   14      C       1.9321790000     1.1245180000     0.8205780000
   15      H       0.3944780000     0.2297650000     2.1428810000
   16      C       2.1467560000     1.2491610000    -0.5635880000
   17      S       0.8387240000     0.4885000000    -1.4647480000
   18      C       2.8523640000     1.6599240000     1.8823800000
   19      H       2.4651450000     1.4347100000     2.8949740000
   20      H       2.9706210000     2.7611830000     1.8081370000
   21      H       3.8681600000     1.2184160000     1.8082300000
   22      H       2.9747810000     1.7310320000    -1.0971140000
 ----------------------------------------------------------------

   11   -1179.6126731215      6.00e-07  Convergence criterion met
 Total energy in the final basis set =    -1179.6126731215
        RIMP2         total energy =     -1181.6094674252 a.u.

                    Orbital Energies (a.u.)
 --------------------------------------------------------------

 Alpha MOs
 -- Occupied --
-91.9854 -91.9771 -11.2929 -11.2785 -11.2660 -11.2575 -11.2569 -11.2560
-11.2375 -11.2323 -11.2321 -11.2237  -8.9861  -8.9774  -6.6668  -6.6660
 -6.6656  -6.6583  -6.6577  -6.6570  -1.1940  -1.1451  -1.0475  -1.0221
 -1.0018  -0.9475  -0.9145  -0.8924  -0.7963  -0.7678  -0.7263  -0.6895
 -0.6556  -0.6223  -0.5908  -0.5823  -0.5758  -0.5698  -0.5499  -0.5351
 -0.5292  -0.5147  -0.5079  -0.4962  -0.4685  -0.4645  -0.4475  -0.3625
 -0.3488  -0.3335  -0.2639

          Ground-State Mulliken Net Atomic Charges

     Atom                 Charge (a.u.)
  ----------------------------------------
      1 C                    -0.258760
      2 C                    -0.238203
      3 C                     0.005143
      4 H                     0.182379
      5 C                     0.010151
      6 S                    -0.009760
      7 C                    -0.308894
      8 H                     0.108741
      9 H                     0.107523
     10 H                     0.112363
     11 H                     0.199640
     12 C                    -0.116552
     13 C                    -0.137471
     14 C                    -0.000749
     15 H                     0.196940
     16 C                    -0.172567
     17 S                     0.058686
     18 C                    -0.265133
     19 H                     0.104603
     20 H                     0.109309
     21 H                     0.107877
     22 H                     0.204736
  ----------------------------------------
  Sum of atomic charges =     0.000000

                    Cartesian Multipole Moments
 -----------------------------------------------------------------
    Charge (ESU x 10^10)
                -0.0000
    Dipole Moment (Debye)
         X       2.5021      Y       1.3294      Z       0.2205
       Tot       2.8419
    Quadrupole Moments (Debye-Ang)
        XX     -81.9889     XY       6.7452     YY     -81.3029
        XZ       2.3804     YZ       3.0768     ZZ     -80.4083

 Total job time:  57.05s(wall), 2106.81s(cpu)
        *  Thank you very much for using Q-Chem.  Have a nice day.  *
