 Q-Chem 5.4, Q-Chem, Inc., Pleasanton, CA (2021)
 Q-Chem 5.4.0 for Intel X86 EM64T Linux

User input:
--------------------------------------------------------------
$molecule
0 1
C	0.713264	-3.887800	0.126876
C	-0.651267	-3.701456	-0.113784
C	-1.068787	-2.345170	-0.188043
H	-1.346782	-4.545233	-0.236019
C	0.000000	-1.450135	0.000000
S	1.504247	-2.321334	0.265612
C	-2.493059	-1.934439	-0.439357
H	-3.147809	-2.819799	-0.554378
H	-2.589987	-1.326210	-1.362899
H	-2.899892	-1.325374	0.394786
H	1.287774	-4.815326	0.228603
C	0.000000	0.000000	0.000000
C	-0.003081	0.844605	1.113020
C	-0.007772	2.235575	0.820578
H	-0.001743	0.456510	2.142881
C	-0.008427	2.483726	-0.563588
S	-0.003691	0.970607	-1.464748
C	-0.011355	3.300181	1.882380
H	-0.009922	2.852233	2.894974
H	-0.905944	3.953225	1.808137
H	0.878901	3.959133	1.808230
H	-0.011727	3.441752	-1.097114
$end

$rem
JOBTYPE		SP
EXCHANGE	HF
CORRELATION	pRIMP2
BASIS		cc-pvtz
METHOD		rimp2
AUX_BASIS	rimp2-cc-pvtz
SOLVENT_METHOD	PCM
PURECART	11111
SYMMETRY	false
MEM_TOTAL	110000
SCF_CONVERGENCE = 6
THRESH=10
GUI = 2
$end

$solvent
dielectric 4.90
$end
--------------------------------------------------------------

             Standard Nuclear Orientation (Angstroms)
    I     Atom           X                Y                Z
 ----------------------------------------------------------------
    1      C       0.7132640000    -3.8878000000     0.1268760000
    2      C      -0.6512670000    -3.7014560000    -0.1137840000
    3      C      -1.0687870000    -2.3451700000    -0.1880430000
    4      H      -1.3467820000    -4.5452330000    -0.2360190000
    5      C       0.0000000000    -1.4501350000     0.0000000000
    6      S       1.5042470000    -2.3213340000     0.2656120000
    7      C      -2.4930590000    -1.9344390000    -0.4393570000
    8      H      -3.1478090000    -2.8197990000    -0.5543780000
    9      H      -2.5899870000    -1.3262100000    -1.3628990000
   10      H      -2.8998920000    -1.3253740000     0.3947860000
   11      H       1.2877740000    -4.8153260000     0.2286030000
   12      C       0.0000000000     0.0000000000     0.0000000000
   13      C      -0.0030810000     0.8446050000     1.1130200000
   14      C      -0.0077720000     2.2355750000     0.8205780000
   15      H      -0.0017430000     0.4565100000     2.1428810000
   16      C      -0.0084270000     2.4837260000    -0.5635880000
   17      S      -0.0036910000     0.9706070000    -1.4647480000
   18      C      -0.0113550000     3.3001810000     1.8823800000
   19      H      -0.0099220000     2.8522330000     2.8949740000
   20      H      -0.9059440000     3.9532250000     1.8081370000
   21      H       0.8789010000     3.9591330000     1.8082300000
   22      H      -0.0117270000     3.4417520000    -1.0971140000
 ----------------------------------------------------------------

   10   -1179.6860680986      5.07e-07  Convergence criterion met
 Total energy in the final basis set =    -1179.6860680986
        RIMP2         total energy =     -1181.6635750144 a.u.

                    Orbital Energies (a.u.)
 --------------------------------------------------------------

 Alpha MOs
 -- Occupied --
-91.9856 -91.9855 -11.2792 -11.2735 -11.2729 -11.2650 -11.2537 -11.2509
-11.2422 -11.2417 -11.2290 -11.2290  -8.9850  -8.9850  -6.6658  -6.6658
 -6.6653  -6.6653  -6.6647  -6.6647  -1.1778  -1.1496  -1.0391  -1.0227
 -0.9971  -0.9537  -0.9134  -0.8924  -0.7997  -0.7548  -0.7287  -0.6946
 -0.6622  -0.6166  -0.5823  -0.5789  -0.5714  -0.5692  -0.5515  -0.5312
 -0.5284  -0.5194  -0.5073  -0.4927  -0.4889  -0.4647  -0.4623  -0.3453
 -0.3395  -0.3210  -0.3043

          Ground-State Mulliken Net Atomic Charges

     Atom                 Charge (a.u.)
  ----------------------------------------
      1 C                    -0.212974
      2 C                    -0.248687
      3 C                     0.043463
      4 H                     0.185274
      5 C                    -0.044687
      6 S                     0.026433
      7 C                    -0.281928
      8 H                     0.107536
      9 H                     0.109965
     10 H                     0.110430
     11 H                     0.204121
     12 C                    -0.009953
     13 C                    -0.227235
     14 C                     0.017338
     15 H                     0.186017
     16 C                    -0.237652
     17 S                     0.026342
     18 C                    -0.271164
     19 H                     0.102925
     20 H                     0.107833
     21 H                     0.108336
     22 H                     0.198269
  ----------------------------------------
  Sum of atomic charges =     0.000000

                    Cartesian Multipole Moments
 -----------------------------------------------------------------
    Charge (ESU x 10^10)
                -0.0000
    Dipole Moment (Debye)
         X      -1.4983      Y       0.2407      Z       1.2006
       Tot       1.9350
    Quadrupole Moments (Debye-Ang)
        XX     -86.3305     XY       2.1758     YY     -68.7443
        XZ       1.1567     YZ       1.5341     ZZ     -86.5421

 Total job time:  50.99s(wall), 1775.18s(cpu)
        *  Thank you very much for using Q-Chem.  Have a nice day.  *
