 Q-Chem 5.4, Q-Chem, Inc., Pleasanton, CA (2021)
 Q-Chem 5.4.0 for Intel X86 EM64T Linux

User input:
--------------------------------------------------------------
$molecule
0 1
C	-0.361285	-3.887800	-0.627947
C	0.331462	-3.701456	0.572038
C	0.542953	-2.345170	0.939610
H	0.684893	-4.545233	1.183405
C	0.000000	-1.450135	0.000000
S	-0.763441	-2.321334	-1.323052
C	1.265941	-1.934439	2.192207
H	1.598695	-2.819799	2.767709
H	0.620770	-1.326210	2.860100
H	2.166438	-1.325374	1.967682
H	-0.652645	-4.815326	-1.133436
C	0.000000	0.000000	0.000000
C	0.729909	0.424971	1.113020
C	1.932179	1.124518	0.820578
H	0.394478	0.229765	2.142881
C	2.146756	1.249161	-0.563588
S	0.838724	0.488500	-1.464748
C	2.852364	1.659924	1.882380
H	2.465145	1.434710	2.894974
H	2.970621	2.761183	1.808137
H	3.868160	1.218416	1.808230
H	2.974781	1.731032	-1.097114
$end

$rem
JOBTYPE		SP
EXCHANGE	HF
CORRELATION	pRIMP2
BASIS		cc-pvtz
METHOD		rimp2
AUX_BASIS	rimp2-cc-pvtz
SOLVENT_METHOD	PCM
PURECART	11111
SYMMETRY	false
MEM_TOTAL	110000
SCF_CONVERGENCE = 6
THRESH=10
GUI = 2
$end

$solvent
dielectric 4.90
$end
--------------------------------------------------------------

             Standard Nuclear Orientation (Angstroms)
    I     Atom           X                Y                Z
 ----------------------------------------------------------------
    1      C      -0.3612850000    -3.8878000000    -0.6279470000
    2      C       0.3314620000    -3.7014560000     0.5720380000
    3      C       0.5429530000    -2.3451700000     0.9396100000
    4      H       0.6848930000    -4.5452330000     1.1834050000
    5      C       0.0000000000    -1.4501350000     0.0000000000
    6      S      -0.7634410000    -2.3213340000    -1.3230520000
    7      C       1.2659410000    -1.9344390000     2.1922070000
    8      H       1.5986950000    -2.8197990000     2.7677090000
    9      H       0.6207700000    -1.3262100000     2.8601000000
   10      H       2.1664380000    -1.3253740000     1.9676820000
   11      H      -0.6526450000    -4.8153260000    -1.1334360000
   12      C       0.0000000000     0.0000000000     0.0000000000
   13      C       0.7299090000     0.4249710000     1.1130200000
   14      C       1.9321790000     1.1245180000     0.8205780000
   15      H       0.3944780000     0.2297650000     2.1428810000
   16      C       2.1467560000     1.2491610000    -0.5635880000
   17      S       0.8387240000     0.4885000000    -1.4647480000
   18      C       2.8523640000     1.6599240000     1.8823800000
   19      H       2.4651450000     1.4347100000     2.8949740000
   20      H       2.9706210000     2.7611830000     1.8081370000
   21      H       3.8681600000     1.2184160000     1.8082300000
   22      H       2.9747810000     1.7310320000    -1.0971140000
 ----------------------------------------------------------------

   11   -1179.6045093968      5.50e-07  Convergence criterion met
 Total energy in the final basis set =    -1179.6045093968
        RIMP2         total energy =     -1181.6026849864 a.u.

                    Orbital Energies (a.u.)
 --------------------------------------------------------------

 Alpha MOs
 -- Occupied --
-91.9820 -91.9731 -11.2913 -11.2788 -11.2635 -11.2609 -11.2546 -11.2543
-11.2392 -11.2380 -11.2328 -11.2276  -8.9828  -8.9737  -6.6636  -6.6627
 -6.6624  -6.6547  -6.6541  -6.6535  -1.1929  -1.1456  -1.0470  -1.0273
 -0.9960  -0.9520  -0.9150  -0.8942  -0.7955  -0.7567  -0.7342  -0.7038
 -0.6526  -0.6200  -0.6010  -0.5870  -0.5680  -0.5583  -0.5490  -0.5417
 -0.5301  -0.5226  -0.5065  -0.4873  -0.4754  -0.4581  -0.4498  -0.3598
 -0.3447  -0.3338  -0.2680

          Ground-State Mulliken Net Atomic Charges

     Atom                 Charge (a.u.)
  ----------------------------------------
      1 C                    -0.225824
      2 C                    -0.261416
      3 C                     0.027813
      4 H                     0.182507
      5 C                     0.008414
      6 S                    -0.010618
      7 C                    -0.292030
      8 H                     0.114429
      9 H                     0.096071
     10 H                     0.113633
     11 H                     0.201083
     12 C                    -0.152035
     13 C                    -0.107346
     14 C                    -0.026589
     15 H                     0.199325
     16 C                    -0.169965
     17 S                     0.042394
     18 C                    -0.282797
     19 H                     0.106799
     20 H                     0.122168
     21 H                     0.109720
     22 H                     0.204265
  ----------------------------------------
  Sum of atomic charges =     0.000000

                    Cartesian Multipole Moments
 -----------------------------------------------------------------
    Charge (ESU x 10^10)
                -0.0000
    Dipole Moment (Debye)
         X       3.6851      Y       0.9960      Z       3.1392
       Tot       4.9423
    Quadrupole Moments (Debye-Ang)
        XX     -81.2601     XY       4.5125     YY     -80.4053
        XZ       3.2397     YZ      -1.5485     ZZ     -81.5130

 Total job time:  75.19s(wall), 3216.25s(cpu)
        *  Thank you very much for using Q-Chem.  Have a nice day.  *
