 Q-Chem 5.4, Q-Chem, Inc., Pleasanton, CA (2021)
 Q-Chem 5.4.0 for Intel X86 EM64T Linux

User input:
--------------------------------------------------------------
$molecule
0 1
C	0.724460	-3.887800	0.001092
C	-0.661131	-3.701456	0.001036
C	-1.085203	-2.345170	0.000406
H	-1.367305	-4.545233	0.001433
C	0.000000	-1.450135	0.000000
S	1.527517	-2.321334	0.000367
C	-2.531478	-1.934439	0.000233
H	-3.196254	-2.819799	0.000656
H	-2.787305	-1.326210	-0.892447
H	-2.787282	-1.325374	0.892350
H	1.307907	-4.815326	0.001511
C	0.000000	0.000000	0.000000
C	0.143630	0.832309	1.113020
C	0.380550	2.202961	0.820578
H	0.077556	0.449877	2.142881
C	0.422995	2.447456	-0.563588
S	0.164909	0.956502	-1.464748
C	0.561888	3.252016	1.882380
H	0.485513	2.810624	2.894974
H	-0.205711	4.050482	1.808137
H	1.553045	3.746365	1.808230
H	0.586105	3.391501	-1.097114
$end

$rem
JOBTYPE		SP
EXCHANGE	HF
CORRELATION	pRIMP2
BASIS		cc-pvtz
METHOD		rimp2
AUX_BASIS	rimp2-cc-pvtz
SOLVENT_METHOD	PCM
PURECART	11111
SYMMETRY	false
MEM_TOTAL	110000
SCF_CONVERGENCE = 6
THRESH=10
GUI = 2
$end

$solvent
dielectric 4.90
$end
--------------------------------------------------------------

             Standard Nuclear Orientation (Angstroms)
    I     Atom           X                Y                Z
 ----------------------------------------------------------------
    1      C       0.7244600000    -3.8878000000     0.0010920000
    2      C      -0.6611310000    -3.7014560000     0.0010360000
    3      C      -1.0852030000    -2.3451700000     0.0004060000
    4      H      -1.3673050000    -4.5452330000     0.0014330000
    5      C       0.0000000000    -1.4501350000     0.0000000000
    6      S       1.5275170000    -2.3213340000     0.0003670000
    7      C      -2.5314780000    -1.9344390000     0.0002330000
    8      H      -3.1962540000    -2.8197990000     0.0006560000
    9      H      -2.7873050000    -1.3262100000    -0.8924470000
   10      H      -2.7872820000    -1.3253740000     0.8923500000
   11      H       1.3079070000    -4.8153260000     0.0015110000
   12      C       0.0000000000     0.0000000000     0.0000000000
   13      C       0.1436300000     0.8323090000     1.1130200000
   14      C       0.3805500000     2.2029610000     0.8205780000
   15      H       0.0775560000     0.4498770000     2.1428810000
   16      C       0.4229950000     2.4474560000    -0.5635880000
   17      S       0.1649090000     0.9565020000    -1.4647480000
   18      C       0.5618880000     3.2520160000     1.8823800000
   19      H       0.4855130000     2.8106240000     2.8949740000
   20      H      -0.2057110000     4.0504820000     1.8081370000
   21      H       1.5530450000     3.7463650000     1.8082300000
   22      H       0.5861050000     3.3915010000    -1.0971140000
 ----------------------------------------------------------------

   10   -1179.6841649484      5.06e-07  Convergence criterion met
 Total energy in the final basis set =    -1179.6841649484
        RIMP2         total energy =     -1181.6618251396 a.u.

                    Orbital Energies (a.u.)
 --------------------------------------------------------------

 Alpha MOs
 -- Occupied --
-91.9854 -91.9852 -11.2782 -11.2729 -11.2729 -11.2655 -11.2532 -11.2508
-11.2421 -11.2418 -11.2291 -11.2291  -8.9848  -8.9847  -6.6657  -6.6656
 -6.6652  -6.6650  -6.6645  -6.6644  -1.1778  -1.1495  -1.0391  -1.0228
 -0.9967  -0.9538  -0.9131  -0.8924  -0.7998  -0.7534  -0.7300  -0.6943
 -0.6620  -0.6166  -0.5825  -0.5791  -0.5705  -0.5690  -0.5514  -0.5310
 -0.5292  -0.5193  -0.5070  -0.4923  -0.4880  -0.4643  -0.4633  -0.3471
 -0.3372  -0.3127  -0.3122

          Ground-State Mulliken Net Atomic Charges

     Atom                 Charge (a.u.)
  ----------------------------------------
      1 C                    -0.207424
      2 C                    -0.251158
      3 C                     0.052362
      4 H                     0.184813
      5 C                    -0.058730
      6 S                     0.025646
      7 C                    -0.283036
      8 H                     0.106826
      9 H                     0.110395
     10 H                     0.109726
     11 H                     0.204176
     12 C                    -0.004494
     13 C                    -0.228755
     14 C                     0.020393
     15 H                     0.185006
     16 C                    -0.237636
     17 S                     0.025760
     18 C                    -0.271001
     19 H                     0.102796
     20 H                     0.107793
     21 H                     0.108304
     22 H                     0.198239
  ----------------------------------------
  Sum of atomic charges =     0.000000

                    Cartesian Multipole Moments
 -----------------------------------------------------------------
    Charge (ESU x 10^10)
                -0.0000
    Dipole Moment (Debye)
         X      -1.1798      Y       0.2545      Z       1.4789
       Tot       1.9088
    Quadrupole Moments (Debye-Ang)
        XX     -85.7973     XY       4.0720     YY     -69.0702
        XZ       0.2193     YZ       1.1102     ZZ     -86.7320

 Total job time:  65.83s(wall), 2606.18s(cpu)
        *  Thank you very much for using Q-Chem.  Have a nice day.  *
