 Q-Chem 5.4, Q-Chem, Inc., Pleasanton, CA (2021)
 Q-Chem 5.4.0 for Intel X86 EM64T Linux

User input:
--------------------------------------------------------------
$molecule
0 1
C	-0.681143	-3.887800	0.246754
C	0.620906	-3.701456	-0.227093
C	1.019618	-2.345170	-0.371543
H	1.284357	-4.545233	-0.468992
C	0.000000	-1.450135	0.000000
S	-1.435522	-2.321334	0.522097
C	2.378731	-1.934439	-0.866035
H	3.003272	-2.819799	-1.093799
H	2.924444	-1.326210	-0.114688
H	2.313987	-1.325374	-1.791841
H	-1.229547	-4.815326	0.445911
C	0.000000	0.000000	0.000000
C	0.645024	0.545262	1.113020
C	1.707554	1.442954	0.820578
H	0.348587	0.294774	2.142881
C	1.897227	1.602964	-0.563588
S	0.741155	0.626722	-1.464748
C	2.520787	2.130014	1.882380
H	2.178559	1.840981	2.894974
H	2.446016	3.235078	1.808137
H	3.597818	1.871604	1.808230
H	2.628997	2.221299	-1.097114
$end

$rem
JOBTYPE		SP
EXCHANGE	HF
CORRELATION	pRIMP2
BASIS		cc-pvtz
METHOD		rimp2
AUX_BASIS	rimp2-cc-pvtz
SOLVENT_METHOD	PCM
PURECART	11111
SYMMETRY	false
MEM_TOTAL	110000
SCF_CONVERGENCE = 6
THRESH=10
GUI = 2
$end

$solvent
dielectric 4.90
$end
--------------------------------------------------------------

             Standard Nuclear Orientation (Angstroms)
    I     Atom           X                Y                Z
 ----------------------------------------------------------------
    1      C      -0.6811430000    -3.8878000000     0.2467540000
    2      C       0.6209060000    -3.7014560000    -0.2270930000
    3      C       1.0196180000    -2.3451700000    -0.3715430000
    4      H       1.2843570000    -4.5452330000    -0.4689920000
    5      C       0.0000000000    -1.4501350000     0.0000000000
    6      S      -1.4355220000    -2.3213340000     0.5220970000
    7      C       2.3787310000    -1.9344390000    -0.8660350000
    8      H       3.0032720000    -2.8197990000    -1.0937990000
    9      H       2.9244440000    -1.3262100000    -0.1146880000
   10      H       2.3139870000    -1.3253740000    -1.7918410000
   11      H      -1.2295470000    -4.8153260000     0.4459110000
   12      C       0.0000000000     0.0000000000     0.0000000000
   13      C       0.6450240000     0.5452620000     1.1130200000
   14      C       1.7075540000     1.4429540000     0.8205780000
   15      H       0.3485870000     0.2947740000     2.1428810000
   16      C       1.8972270000     1.6029640000    -0.5635880000
   17      S       0.7411550000     0.6267220000    -1.4647480000
   18      C       2.5207870000     2.1300140000     1.8823800000
   19      H       2.1785590000     1.8409810000     2.8949740000
   20      H       2.4460160000     3.2350780000     1.8081370000
   21      H       3.5978180000     1.8716040000     1.8082300000
   22      H       2.6289970000     2.2212990000    -1.0971140000
 ----------------------------------------------------------------

   10   -1179.6328015208      9.24e-07  Convergence criterion met
 Total energy in the final basis set =    -1179.6328015208
        RIMP2         total energy =     -1181.6267488667 a.u.

                    Orbital Energies (a.u.)
 --------------------------------------------------------------

 Alpha MOs
 -- Occupied --
-91.9827 -91.9770 -11.2823 -11.2755 -11.2627 -11.2610 -11.2589 -11.2535
-11.2419 -11.2384 -11.2312 -11.2216  -8.9831  -8.9770  -6.6639  -6.6632
 -6.6628  -6.6579  -6.6573  -6.6567  -1.1857  -1.1462  -1.0438  -1.0168
 -0.9992  -0.9528  -0.9115  -0.8908  -0.7944  -0.7551  -0.7334  -0.6944
 -0.6559  -0.6194  -0.5836  -0.5818  -0.5734  -0.5676  -0.5485  -0.5351
 -0.5248  -0.5219  -0.5120  -0.4901  -0.4668  -0.4644  -0.4492  -0.3522
 -0.3376  -0.3242  -0.2876

          Ground-State Mulliken Net Atomic Charges

     Atom                 Charge (a.u.)
  ----------------------------------------
      1 C                    -0.223278
      2 C                    -0.257786
      3 C                     0.044346
      4 H                     0.183872
      5 C                    -0.004048
      6 S                     0.000405
      7 C                    -0.312127
      8 H                     0.112977
      9 H                     0.113511
     10 H                     0.119044
     11 H                     0.200050
     12 C                    -0.116454
     13 C                    -0.136960
     14 C                    -0.012905
     15 H                     0.188005
     16 C                    -0.181865
     17 S                     0.032024
     18 C                    -0.268007
     19 H                     0.103656
     20 H                     0.109105
     21 H                     0.105945
     22 H                     0.200489
  ----------------------------------------
  Sum of atomic charges =     0.000000

                    Cartesian Multipole Moments
 -----------------------------------------------------------------
    Charge (ESU x 10^10)
                -0.0000
    Dipole Moment (Debye)
         X       3.6889      Y       0.9865      Z       1.0531
       Tot       3.9611
    Quadrupole Moments (Debye-Ang)
        XX     -80.4157     XY       3.9684     YY     -78.2415
        XZ      -1.4129     YZ       1.6432     ZZ     -85.1689

 Total job time:  55.51s(wall), 1846.11s(cpu)
        *  Thank you very much for using Q-Chem.  Have a nice day.  *
