 Q-Chem 5.4, Q-Chem, Inc., Pleasanton, CA (2021)
 Q-Chem 5.4.0 for Intel X86 EM64T Linux

User input:
--------------------------------------------------------------
$molecule
0 1
C	0.680396	-3.887800	0.248806
C	-0.621614	-3.701456	-0.225147
C	-1.019896	-2.345170	-0.370780
H	-1.285337	-4.545233	-0.466300
C	0.000000	-1.450135	0.000000
S	1.435271	-2.321334	0.522786
C	-2.378891	-1.934439	-0.865597
H	-3.003720	-2.819799	-1.092567
H	-2.313975	-1.326210	-1.791940
H	-2.924390	-1.325374	-0.114772
H	1.228514	-4.815326	0.448750
C	0.000000	0.000000	0.000000
C	0.729909	0.424971	1.113020
C	1.932179	1.124518	0.820578
H	0.394478	0.229765	2.142881
C	2.146756	1.249161	-0.563588
S	0.838724	0.488500	-1.464748
C	2.852364	1.659924	1.882380
H	2.465145	1.434710	2.894974
H	2.970621	2.761183	1.808137
H	3.868160	1.218416	1.808230
H	2.974781	1.731032	-1.097114
$end

$rem
JOBTYPE		SP
EXCHANGE	HF
CORRELATION	pRIMP2
BASIS		cc-pvtz
METHOD		rimp2
AUX_BASIS	rimp2-cc-pvtz
SOLVENT_METHOD	PCM
PURECART	11111
SYMMETRY	false
MEM_TOTAL	110000
SCF_CONVERGENCE = 6
THRESH=10
GUI = 2
$end

$solvent
dielectric 4.90
$end
--------------------------------------------------------------

             Standard Nuclear Orientation (Angstroms)
    I     Atom           X                Y                Z
 ----------------------------------------------------------------
    1      C       0.6803960000    -3.8878000000     0.2488060000
    2      C      -0.6216140000    -3.7014560000    -0.2251470000
    3      C      -1.0198960000    -2.3451700000    -0.3707800000
    4      H      -1.2853370000    -4.5452330000    -0.4663000000
    5      C       0.0000000000    -1.4501350000     0.0000000000
    6      S       1.4352710000    -2.3213340000     0.5227860000
    7      C      -2.3788910000    -1.9344390000    -0.8655970000
    8      H      -3.0037200000    -2.8197990000    -1.0925670000
    9      H      -2.3139750000    -1.3262100000    -1.7919400000
   10      H      -2.9243900000    -1.3253740000    -0.1147720000
   11      H       1.2285140000    -4.8153260000     0.4487500000
   12      C       0.0000000000     0.0000000000     0.0000000000
   13      C       0.7299090000     0.4249710000     1.1130200000
   14      C       1.9321790000     1.1245180000     0.8205780000
   15      H       0.3944780000     0.2297650000     2.1428810000
   16      C       2.1467560000     1.2491610000    -0.5635880000
   17      S       0.8387240000     0.4885000000    -1.4647480000
   18      C       2.8523640000     1.6599240000     1.8823800000
   19      H       2.4651450000     1.4347100000     2.8949740000
   20      H       2.9706210000     2.7611830000     1.8081370000
   21      H       3.8681600000     1.2184160000     1.8082300000
   22      H       2.9747810000     1.7310320000    -1.0971140000
 ----------------------------------------------------------------

   10   -1179.6189114519      7.69e-07  Convergence criterion met
 Total energy in the final basis set =    -1179.6189114519
        RIMP2         total energy =     -1181.6122767931 a.u.

                    Orbital Energies (a.u.)
 --------------------------------------------------------------

 Alpha MOs
 -- Occupied --
-91.9830 -91.9763 -11.2912 -11.2707 -11.2637 -11.2634 -11.2546 -11.2499
-11.2382 -11.2364 -11.2314 -11.2246  -8.9834  -8.9765  -6.6642  -6.6634
 -6.6630  -6.6574  -6.6568  -6.6562  -1.1907  -1.1450  -1.0452  -1.0169
 -1.0018  -0.9484  -0.9138  -0.8896  -0.7958  -0.7549  -0.7365  -0.6876
 -0.6559  -0.6229  -0.5873  -0.5798  -0.5695  -0.5682  -0.5478  -0.5350
 -0.5299  -0.5144  -0.5068  -0.4915  -0.4671  -0.4613  -0.4561  -0.3564
 -0.3351  -0.3221  -0.2869

          Ground-State Mulliken Net Atomic Charges

     Atom                 Charge (a.u.)
  ----------------------------------------
      1 C                    -0.234277
      2 C                    -0.244213
      3 C                     0.035397
      4 H                     0.181532
      5 C                    -0.031715
      6 S                     0.007702
      7 C                    -0.286318
      8 H                     0.106270
      9 H                     0.106428
     10 H                     0.108354
     11 H                     0.201256
     12 C                    -0.126861
     13 C                    -0.150151
     14 C                    -0.010440
     15 H                     0.193848
     16 C                    -0.161124
     17 S                     0.045711
     18 C                    -0.266676
     19 H                     0.104320
     20 H                     0.110263
     21 H                     0.107212
     22 H                     0.203484
  ----------------------------------------
  Sum of atomic charges =     0.000000

                    Cartesian Multipole Moments
 -----------------------------------------------------------------
    Charge (ESU x 10^10)
                -0.0000
    Dipole Moment (Debye)
         X       1.5087      Y       0.7881      Z       1.1600
       Tot       2.0598
    Quadrupole Moments (Debye-Ang)
        XX     -77.7026     XY       8.0192     YY     -79.6074
        XZ       2.5274     YZ       1.4744     ZZ     -85.0955

 Total job time:  49.22s(wall), 1706.21s(cpu)
        *  Thank you very much for using Q-Chem.  Have a nice day.  *
