 Q-Chem 5.4, Q-Chem, Inc., Pleasanton, CA (2021)
 Q-Chem 5.4.0 for Intel X86 EM64T Linux

User input:
--------------------------------------------------------------
$molecule
0 1
C	-0.554267	-3.887800	-0.466510
C	0.507121	-3.701456	0.424173
C	0.831575	-2.345170	0.697244
H	1.048337	-4.545233	0.877789
C	0.000000	-1.450135	0.000000
S	-1.169911	-2.321334	-0.982150
C	1.939374	-1.934439	1.627024
H	2.448894	-2.819799	2.054010
H	1.561545	-1.326210	2.475299
H	2.708773	-1.325374	1.108051
H	-1.000944	-4.815326	-0.841863
C	0.000000	0.000000	0.000000
C	0.285976	0.794723	1.113020
C	0.757308	2.103412	0.820578
H	0.154498	0.429575	2.142881
C	0.841565	2.336821	-0.563588
S	0.328498	0.913334	-1.464748
C	1.118059	3.105040	1.882380
H	0.966197	2.683616	2.894974
H	0.500773	4.024668	1.808137
H	2.180000	3.419766	1.808230
H	1.166129	3.238200	-1.097114
$end

$rem
JOBTYPE		SP
EXCHANGE	HF
CORRELATION	pRIMP2
BASIS		cc-pvtz
METHOD		rimp2
AUX_BASIS	rimp2-cc-pvtz
SOLVENT_METHOD	PCM
PURECART	11111
SYMMETRY	false
MEM_TOTAL	110000
SCF_CONVERGENCE = 6
THRESH=10
GUI = 2
$end

$solvent
dielectric 4.90
$end
--------------------------------------------------------------

             Standard Nuclear Orientation (Angstroms)
    I     Atom           X                Y                Z
 ----------------------------------------------------------------
    1      C      -0.5542670000    -3.8878000000    -0.4665100000
    2      C       0.5071210000    -3.7014560000     0.4241730000
    3      C       0.8315750000    -2.3451700000     0.6972440000
    4      H       1.0483370000    -4.5452330000     0.8777890000
    5      C       0.0000000000    -1.4501350000     0.0000000000
    6      S      -1.1699110000    -2.3213340000    -0.9821500000
    7      C       1.9393740000    -1.9344390000     1.6270240000
    8      H       2.4488940000    -2.8197990000     2.0540100000
    9      H       1.5615450000    -1.3262100000     2.4752990000
   10      H       2.7087730000    -1.3253740000     1.1080510000
   11      H      -1.0009440000    -4.8153260000    -0.8418630000
   12      C       0.0000000000     0.0000000000     0.0000000000
   13      C       0.2859760000     0.7947230000     1.1130200000
   14      C       0.7573080000     2.1034120000     0.8205780000
   15      H       0.1544980000     0.4295750000     2.1428810000
   16      C       0.8415650000     2.3368210000    -0.5635880000
   17      S       0.3284980000     0.9133340000    -1.4647480000
   18      C       1.1180590000     3.1050400000     1.8823800000
   19      H       0.9661970000     2.6836160000     2.8949740000
   20      H       0.5007730000     4.0246680000     1.8081370000
   21      H       2.1800000000     3.4197660000     1.8082300000
   22      H       1.1661290000     3.2382000000    -1.0971140000
 ----------------------------------------------------------------

   10   -1179.6791206252      5.32e-07  Convergence criterion met
 Total energy in the final basis set =    -1179.6791206252
        RIMP2         total energy =     -1181.6599600331 a.u.

                    Orbital Energies (a.u.)
 --------------------------------------------------------------

 Alpha MOs
 -- Occupied --
-91.9853 -91.9838 -11.2777 -11.2755 -11.2722 -11.2671 -11.2531 -11.2519
-11.2426 -11.2425 -11.2297 -11.2288  -8.9849  -8.9835  -6.6658  -6.6652
 -6.6646  -6.6645  -6.6639  -6.6633  -1.1795  -1.1496  -1.0403  -1.0238
 -0.9960  -0.9548  -0.9131  -0.8931  -0.7997  -0.7532  -0.7307  -0.6977
 -0.6609  -0.6160  -0.5863  -0.5803  -0.5708  -0.5642  -0.5509  -0.5353
 -0.5285  -0.5217  -0.5073  -0.4922  -0.4841  -0.4681  -0.4586  -0.3489
 -0.3415  -0.3403  -0.2833

          Ground-State Mulliken Net Atomic Charges

     Atom                 Charge (a.u.)
  ----------------------------------------
      1 C                    -0.210765
      2 C                    -0.251692
      3 C                     0.060498
      4 H                     0.185160
      5 C                    -0.034533
      6 S                     0.018940
      7 C                    -0.286459
      8 H                     0.112761
      9 H                     0.106495
     10 H                     0.115936
     11 H                     0.204621
     12 C                    -0.019690
     13 C                    -0.266030
     14 C                     0.039772
     15 H                     0.191838
     16 C                    -0.241824
     17 S                     0.026419
     18 C                    -0.269941
     19 H                     0.102381
     20 H                     0.108844
     21 H                     0.108234
     22 H                     0.199034
  ----------------------------------------
  Sum of atomic charges =     0.000000

                    Cartesian Multipole Moments
 -----------------------------------------------------------------
    Charge (ESU x 10^10)
                -0.0000
    Dipole Moment (Debye)
         X       1.8703      Y       0.2953      Z       2.5096
       Tot       3.1438
    Quadrupole Moments (Debye-Ang)
        XX     -87.6434     XY       1.8465     YY     -70.0384
        XZ       3.6031     YZ      -0.4025     ZZ     -84.0195

 Total job time:  51.31s(wall), 1732.03s(cpu)
        *  Thank you very much for using Q-Chem.  Have a nice day.  *
