 Q-Chem 5.4, Q-Chem, Inc., Pleasanton, CA (2021)
 Q-Chem 5.4.0 for Intel X86 EM64T Linux

User input:
--------------------------------------------------------------
$molecule
0 1
C	0.464838	-3.887800	0.555670
C	-0.425760	-3.701456	-0.505790
C	-0.697866	-2.345170	-0.831053
H	-0.879984	-4.545233	-1.046496
C	-0.000000	-1.450135	-0.000000
S	0.981588	-2.321334	1.170382
C	-1.627381	-1.934439	-1.939074
H	-2.055015	-2.819799	-2.448051
H	-1.107991	-1.326210	-2.708853
H	-2.475210	-1.325374	-1.561590
H	0.839549	-4.815326	1.002886
C	0.000000	0.000000	0.000000
C	0.215623	0.816623	1.113020
C	0.571102	2.161411	0.820578
H	0.116470	0.441406	2.142881
C	0.634696	2.401276	-0.563588
S	0.247646	0.938489	-1.464748
C	0.843182	3.190669	1.882380
H	0.728628	2.757614	2.894974
H	0.148095	4.052998	1.808137
H	1.873652	3.596752	1.808230
H	0.879464	3.327513	-1.097114
$end

$rem
JOBTYPE		SP
EXCHANGE	HF
CORRELATION	pRIMP2
BASIS		cc-pvtz
METHOD		rimp2
AUX_BASIS	rimp2-cc-pvtz
SOLVENT_METHOD	PCM
PURECART	11111
SYMMETRY	false
MEM_TOTAL	110000
SCF_CONVERGENCE = 6
THRESH=10
GUI = 2
$end

$solvent
dielectric 4.90
$end
--------------------------------------------------------------

             Standard Nuclear Orientation (Angstroms)
    I     Atom           X                Y                Z
 ----------------------------------------------------------------
    1      C       0.4648380000    -3.8878000000     0.5556700000
    2      C      -0.4257600000    -3.7014560000    -0.5057900000
    3      C      -0.6978660000    -2.3451700000    -0.8310530000
    4      H      -0.8799840000    -4.5452330000    -1.0464960000
    5      C       0.0000000000    -1.4501350000     0.0000000000
    6      S       0.9815880000    -2.3213340000     1.1703820000
    7      C      -1.6273810000    -1.9344390000    -1.9390740000
    8      H      -2.0550150000    -2.8197990000    -2.4480510000
    9      H      -1.1079910000    -1.3262100000    -2.7088530000
   10      H      -2.4752100000    -1.3253740000    -1.5615900000
   11      H       0.8395490000    -4.8153260000     1.0028860000
   12      C       0.0000000000     0.0000000000     0.0000000000
   13      C       0.2156230000     0.8166230000     1.1130200000
   14      C       0.5711020000     2.1614110000     0.8205780000
   15      H       0.1164700000     0.4414060000     2.1428810000
   16      C       0.6346960000     2.4012760000    -0.5635880000
   17      S       0.2476460000     0.9384890000    -1.4647480000
   18      C       0.8431820000     3.1906690000     1.8823800000
   19      H       0.7286280000     2.7576140000     2.8949740000
   20      H       0.1480950000     4.0529980000     1.8081370000
   21      H       1.8736520000     3.5967520000     1.8082300000
   22      H       0.8794640000     3.3275130000    -1.0971140000
 ----------------------------------------------------------------

   10   -1179.6840105181      5.31e-07  Convergence criterion met
 Total energy in the final basis set =    -1179.6840105181
        RIMP2         total energy =     -1181.6634212291 a.u.

                    Orbital Energies (a.u.)
 --------------------------------------------------------------

 Alpha MOs
 -- Occupied --
-91.9863 -91.9855 -11.2810 -11.2759 -11.2721 -11.2656 -11.2520 -11.2518
-11.2428 -11.2414 -11.2297 -11.2292  -8.9858  -8.9851  -6.6667  -6.6661
 -6.6660  -6.6655  -6.6655  -6.6648  -1.1798  -1.1499  -1.0405  -1.0239
 -0.9985  -0.9524  -0.9146  -0.8936  -0.7996  -0.7616  -0.7230  -0.6940
 -0.6625  -0.6166  -0.5833  -0.5785  -0.5760  -0.5698  -0.5519  -0.5334
 -0.5255  -0.5192  -0.5083  -0.4963  -0.4881  -0.4680  -0.4570  -0.3554
 -0.3426  -0.3409  -0.2780

          Ground-State Mulliken Net Atomic Charges

     Atom                 Charge (a.u.)
  ----------------------------------------
      1 C                    -0.212971
      2 C                    -0.249178
      3 C                     0.034938
      4 H                     0.185125
      5 C                    -0.023686
      6 S                     0.021159
      7 C                    -0.299825
      8 H                     0.110806
      9 H                     0.111854
     10 H                     0.115080
     11 H                     0.204823
     12 C                     0.037802
     13 C                    -0.295183
     14 C                     0.045664
     15 H                     0.185958
     16 C                    -0.249839
     17 S                     0.029826
     18 C                    -0.270827
     19 H                     0.103141
     20 H                     0.108100
     21 H                     0.108988
     22 H                     0.198245
  ----------------------------------------
  Sum of atomic charges =     0.000000

                    Cartesian Multipole Moments
 -----------------------------------------------------------------
    Charge (ESU x 10^10)
                -0.0000
    Dipole Moment (Debye)
         X      -0.4809      Y       0.2200      Z       0.2976
       Tot       0.6068
    Quadrupole Moments (Debye-Ang)
        XX     -89.2708     XY       4.2040     YY     -69.3725
        XZ       3.6430     YZ       2.8386     ZZ     -82.7163

 Total job time:  51.51s(wall), 1772.87s(cpu)
        *  Thank you very much for using Q-Chem.  Have a nice day.  *
