 Q-Chem 5.4, Q-Chem, Inc., Pleasanton, CA (2021)
 Q-Chem 5.4.0 for Intel X86 EM64T Linux

User input:
--------------------------------------------------------------
$molecule
0 1
C	-0.246754	-3.887800	-0.681143
C	0.227093	-3.701456	0.620906
C	0.371543	-2.345170	1.019618
H	0.468992	-4.545233	1.284357
C	-0.000000	-1.450135	-0.000000
S	-0.522097	-2.321334	-1.435522
C	0.866035	-1.934439	2.378731
H	1.093799	-2.819799	3.003272
H	0.114688	-1.326210	2.924444
H	1.791841	-1.325374	2.313987
H	-0.445911	-4.815326	-1.229547
C	0.000000	0.000000	0.000000
C	0.540541	0.648986	1.113020
C	1.431046	1.717546	0.820578
H	0.292104	0.350827	2.142881
C	1.590053	1.908061	-0.563588
S	0.621066	0.745901	-1.464748
C	2.112618	2.535384	1.882380
H	1.825779	2.191315	2.894974
H	1.847090	3.610676	1.808137
H	3.218159	2.467925	1.808230
H	2.203332	2.644073	-1.097114
$end

$rem
JOBTYPE		SP
EXCHANGE	HF
CORRELATION	pRIMP2
BASIS		cc-pvtz
METHOD		rimp2
AUX_BASIS	rimp2-cc-pvtz
SOLVENT_METHOD	PCM
PURECART	11111
SYMMETRY	false
MEM_TOTAL	110000
SCF_CONVERGENCE = 6
THRESH=10
GUI = 2
$end

$solvent
dielectric 4.90
$end
--------------------------------------------------------------

             Standard Nuclear Orientation (Angstroms)
    I     Atom           X                Y                Z
 ----------------------------------------------------------------
    1      C      -0.2467540000    -3.8878000000    -0.6811430000
    2      C       0.2270930000    -3.7014560000     0.6209060000
    3      C       0.3715430000    -2.3451700000     1.0196180000
    4      H       0.4689920000    -4.5452330000     1.2843570000
    5      C       0.0000000000    -1.4501350000     0.0000000000
    6      S      -0.5220970000    -2.3213340000    -1.4355220000
    7      C       0.8660350000    -1.9344390000     2.3787310000
    8      H       1.0937990000    -2.8197990000     3.0032720000
    9      H       0.1146880000    -1.3262100000     2.9244440000
   10      H       1.7918410000    -1.3253740000     2.3139870000
   11      H      -0.4459110000    -4.8153260000    -1.2295470000
   12      C       0.0000000000     0.0000000000     0.0000000000
   13      C       0.5405410000     0.6489860000     1.1130200000
   14      C       1.4310460000     1.7175460000     0.8205780000
   15      H       0.2921040000     0.3508270000     2.1428810000
   16      C       1.5900530000     1.9080610000    -0.5635880000
   17      S       0.6210660000     0.7459010000    -1.4647480000
   18      C       2.1126180000     2.5353840000     1.8823800000
   19      H       1.8257790000     2.1913150000     2.8949740000
   20      H       1.8470900000     3.6106760000     1.8081370000
   21      H       3.2181590000     2.4679250000     1.8082300000
   22      H       2.2033320000     2.6440730000    -1.0971140000
 ----------------------------------------------------------------

   10   -1179.6505666819      7.57e-07  Convergence criterion met
 Total energy in the final basis set =    -1179.6505666819
        RIMP2         total energy =     -1181.6393681197 a.u.

                    Orbital Energies (a.u.)
 --------------------------------------------------------------

 Alpha MOs
 -- Occupied --
-91.9838 -91.9796 -11.2787 -11.2759 -11.2715 -11.2669 -11.2533 -11.2486
-11.2465 -11.2413 -11.2308 -11.2296  -8.9840  -8.9798  -6.6649  -6.6643
 -6.6637  -6.6608  -6.6602  -6.6596  -1.1843  -1.1485  -1.0431  -1.0261
 -0.9955  -0.9542  -0.9142  -0.8945  -0.7985  -0.7553  -0.7297  -0.7024
 -0.6573  -0.6158  -0.5948  -0.5828  -0.5707  -0.5607  -0.5499  -0.5410
 -0.5287  -0.5231  -0.5044  -0.4907  -0.4785  -0.4704  -0.4511  -0.3645
 -0.3465  -0.3362  -0.2684

          Ground-State Mulliken Net Atomic Charges

     Atom                 Charge (a.u.)
  ----------------------------------------
      1 C                    -0.221623
      2 C                    -0.251815
      3 C                     0.051065
      4 H                     0.184564
      5 C                    -0.027483
      6 S                     0.002809
      7 C                    -0.303728
      8 H                     0.115982
      9 H                     0.100879
     10 H                     0.115427
     11 H                     0.204068
     12 C                    -0.019469
     13 C                    -0.249458
     14 C                     0.037814
     15 H                     0.202927
     16 C                    -0.223726
     17 S                     0.030088
     18 C                    -0.270833
     19 H                     0.102448
     20 H                     0.110947
     21 H                     0.108425
     22 H                     0.200693
  ----------------------------------------
  Sum of atomic charges =     0.000000

                    Cartesian Multipole Moments
 -----------------------------------------------------------------
    Charge (ESU x 10^10)
                -0.0000
    Dipole Moment (Debye)
         X       2.1419      Y       0.7068      Z       3.0620
       Tot       3.8030
    Quadrupole Moments (Debye-Ang)
        XX     -87.0203     XY       5.0094     YY     -74.5730
        XZ       2.7100     YZ      -1.4422     ZZ     -80.8999

 Total job time:  54.17s(wall), 1879.39s(cpu)
        *  Thank you very much for using Q-Chem.  Have a nice day.  *
