 Q-Chem 5.4, Q-Chem, Inc., Pleasanton, CA (2021)
 Q-Chem 5.4.0 for Intel X86 EM64T Linux

User input:
--------------------------------------------------------------
$molecule
0 1
C	-0.126876	-3.887800	0.713264
C	0.113784	-3.701456	-0.651267
C	0.188043	-2.345170	-1.068787
H	0.236019	-4.545233	-1.346782
C	0.000000	-1.450135	0.000000
S	-0.265612	-2.321334	1.504247
C	0.439357	-1.934439	-2.493059
H	0.554378	-2.819799	-3.147809
H	1.362899	-1.326210	-2.589987
H	-0.394786	-1.325374	-2.899892
H	-0.228603	-4.815326	1.287774
C	0.000000	0.000000	0.000000
C	0.285976	0.794723	1.113020
C	0.757308	2.103412	0.820578
H	0.154498	0.429575	2.142881
C	0.841565	2.336821	-0.563588
S	0.328498	0.913334	-1.464748
C	1.118059	3.105040	1.882380
H	0.966197	2.683616	2.894974
H	0.500773	4.024668	1.808137
H	2.180000	3.419766	1.808230
H	1.166129	3.238200	-1.097114
$end

$rem
JOBTYPE		SP
EXCHANGE	HF
CORRELATION	pRIMP2
BASIS		cc-pvtz
METHOD		rimp2
AUX_BASIS	rimp2-cc-pvtz
SOLVENT_METHOD	PCM
PURECART	11111
SYMMETRY	false
MEM_TOTAL	110000
SCF_CONVERGENCE = 6
THRESH=10
GUI = 2
$end

$solvent
dielectric 4.90
$end
--------------------------------------------------------------

             Standard Nuclear Orientation (Angstroms)
    I     Atom           X                Y                Z
 ----------------------------------------------------------------
    1      C      -0.1268760000    -3.8878000000     0.7132640000
    2      C       0.1137840000    -3.7014560000    -0.6512670000
    3      C       0.1880430000    -2.3451700000    -1.0687870000
    4      H       0.2360190000    -4.5452330000    -1.3467820000
    5      C       0.0000000000    -1.4501350000     0.0000000000
    6      S      -0.2656120000    -2.3213340000     1.5042470000
    7      C       0.4393570000    -1.9344390000    -2.4930590000
    8      H       0.5543780000    -2.8197990000    -3.1478090000
    9      H       1.3628990000    -1.3262100000    -2.5899870000
   10      H      -0.3947860000    -1.3253740000    -2.8998920000
   11      H      -0.2286030000    -4.8153260000     1.2877740000
   12      C       0.0000000000     0.0000000000     0.0000000000
   13      C       0.2859760000     0.7947230000     1.1130200000
   14      C       0.7573080000     2.1034120000     0.8205780000
   15      H       0.1544980000     0.4295750000     2.1428810000
   16      C       0.8415650000     2.3368210000    -0.5635880000
   17      S       0.3284980000     0.9133340000    -1.4647480000
   18      C       1.1180590000     3.1050400000     1.8823800000
   19      H       0.9661970000     2.6836160000     2.8949740000
   20      H       0.5007730000     4.0246680000     1.8081370000
   21      H       2.1800000000     3.4197660000     1.8082300000
   22      H       1.1661290000     3.2382000000    -1.0971140000
 ----------------------------------------------------------------

   10   -1179.6769578838      5.08e-07  Convergence criterion met
 Total energy in the final basis set =    -1179.6769578838
        RIMP2         total energy =     -1181.6598000628 a.u.

                    Orbital Energies (a.u.)
 --------------------------------------------------------------

 Alpha MOs
 -- Occupied --
-91.9848 -91.9844 -11.2823 -11.2793 -11.2716 -11.2643 -11.2523 -11.2515
-11.2432 -11.2412 -11.2291 -11.2288  -8.9847  -8.9843  -6.6655  -6.6652
 -6.6650  -6.6647  -6.6644  -6.6640  -1.1815  -1.1497  -1.0419  -1.0248
 -0.9983  -0.9524  -0.9139  -0.8957  -0.7985  -0.7649  -0.7198  -0.6958
 -0.6620  -0.6161  -0.5839  -0.5819  -0.5776  -0.5696  -0.5523  -0.5332
 -0.5235  -0.5206  -0.5116  -0.4972  -0.4874  -0.4669  -0.4500  -0.3703
 -0.3431  -0.3394  -0.2682

          Ground-State Mulliken Net Atomic Charges

     Atom                 Charge (a.u.)
  ----------------------------------------
      1 C                    -0.213782
      2 C                    -0.252044
      3 C                     0.052813
      4 H                     0.185734
      5 C                    -0.035115
      6 S                     0.006180
      7 C                    -0.318392
      8 H                     0.115801
      9 H                     0.118892
     10 H                     0.112255
     11 H                     0.206247
     12 C                     0.044532
     13 C                    -0.253562
     14 C                     0.031939
     15 H                     0.176683
     16 C                    -0.251741
     17 S                     0.023542
     18 C                    -0.269248
     19 H                     0.102890
     20 H                     0.108529
     21 H                     0.108295
     22 H                     0.199554
  ----------------------------------------
  Sum of atomic charges =     0.000000

                    Cartesian Multipole Moments
 -----------------------------------------------------------------
    Charge (ESU x 10^10)
                -0.0000
    Dipole Moment (Debye)
         X       0.9589      Y       0.2075      Z      -0.1539
       Tot       0.9931
    Quadrupole Moments (Debye-Ang)
        XX     -91.2628     XY       3.0453     YY     -70.3937
        XZ      -0.8566     YZ       3.3999     ZZ     -79.9894

 Total job time:  59.16s(wall), 1809.52s(cpu)
        *  Thank you very much for using Q-Chem.  Have a nice day.  *
