 Q-Chem 5.4, Q-Chem, Inc., Pleasanton, CA (2021)
 Q-Chem 5.4.0 for Intel X86 EM64T Linux

User input:
--------------------------------------------------------------
$molecule
0 1
C	-0.626855	-3.887800	-0.363176
C	0.573074	-3.701456	0.329669
C	0.940016	-2.345170	0.542250
H	1.184837	-4.545233	0.682412
C	-0.000000	-1.450135	-0.000000
S	-1.322686	-2.321334	-0.764076
C	2.192440	-1.934439	1.265537
H	2.768365	-2.819799	1.597559
H	1.967653	-1.326210	2.166534
H	2.860032	-1.325374	0.620843
H	-1.131925	-4.815326	-0.655262
C	0.000000	0.000000	0.000000
C	0.215623	0.816623	1.113020
C	0.571102	2.161411	0.820578
H	0.116470	0.441406	2.142881
C	0.634696	2.401276	-0.563588
S	0.247646	0.938489	-1.464748
C	0.843182	3.190669	1.882380
H	0.728628	2.757614	2.894974
H	0.148095	4.052998	1.808137
H	1.873652	3.596752	1.808230
H	0.879464	3.327513	-1.097114
$end

$rem
JOBTYPE		SP
EXCHANGE	HF
CORRELATION	pRIMP2
BASIS		cc-pvtz
METHOD		rimp2
AUX_BASIS	rimp2-cc-pvtz
SOLVENT_METHOD	PCM
PURECART	11111
SYMMETRY	false
MEM_TOTAL	110000
SCF_CONVERGENCE = 6
THRESH=10
GUI = 2
$end

$solvent
dielectric 4.90
$end
--------------------------------------------------------------

             Standard Nuclear Orientation (Angstroms)
    I     Atom           X                Y                Z
 ----------------------------------------------------------------
    1      C      -0.6268550000    -3.8878000000    -0.3631760000
    2      C       0.5730740000    -3.7014560000     0.3296690000
    3      C       0.9400160000    -2.3451700000     0.5422500000
    4      H       1.1848370000    -4.5452330000     0.6824120000
    5      C       0.0000000000    -1.4501350000     0.0000000000
    6      S      -1.3226860000    -2.3213340000    -0.7640760000
    7      C       2.1924400000    -1.9344390000     1.2655370000
    8      H       2.7683650000    -2.8197990000     1.5975590000
    9      H       1.9676530000    -1.3262100000     2.1665340000
   10      H       2.8600320000    -1.3253740000     0.6208430000
   11      H      -1.1319250000    -4.8153260000    -0.6552620000
   12      C       0.0000000000     0.0000000000     0.0000000000
   13      C       0.2156230000     0.8166230000     1.1130200000
   14      C       0.5711020000     2.1614110000     0.8205780000
   15      H       0.1164700000     0.4414060000     2.1428810000
   16      C       0.6346960000     2.4012760000    -0.5635880000
   17      S       0.2476460000     0.9384890000    -1.4647480000
   18      C       0.8431820000     3.1906690000     1.8823800000
   19      H       0.7286280000     2.7576140000     2.8949740000
   20      H       0.1480950000     4.0529980000     1.8081370000
   21      H       1.8736520000     3.5967520000     1.8082300000
   22      H       0.8794640000     3.3275130000    -1.0971140000
 ----------------------------------------------------------------

   10   -1179.6825593278      5.29e-07  Convergence criterion met
 Total energy in the final basis set =    -1179.6825593278
        RIMP2         total energy =     -1181.6620080534 a.u.

                    Orbital Energies (a.u.)
 --------------------------------------------------------------

 Alpha MOs
 -- Occupied --
-91.9855 -91.9843 -11.2782 -11.2746 -11.2726 -11.2662 -11.2537 -11.2515
-11.2425 -11.2420 -11.2295 -11.2289  -8.9850  -8.9840  -6.6659  -6.6654
 -6.6649  -6.6648  -6.6643  -6.6637  -1.1787  -1.1496  -1.0397  -1.0233
 -0.9962  -0.9547  -0.9130  -0.8929  -0.7998  -0.7526  -0.7310  -0.6966
 -0.6615  -0.6162  -0.5842  -0.5800  -0.5707  -0.5659  -0.5513  -0.5334
 -0.5287  -0.5210  -0.5077  -0.4922  -0.4858  -0.4667  -0.4602  -0.3457
 -0.3403  -0.3366  -0.2897

          Ground-State Mulliken Net Atomic Charges

     Atom                 Charge (a.u.)
  ----------------------------------------
      1 C                    -0.211961
      2 C                    -0.251117
      3 C                     0.059653
      4 H                     0.185148
      5 C                    -0.037846
      6 S                     0.022965
      7 C                    -0.282220
      8 H                     0.110844
      9 H                     0.108118
     10 H                     0.114751
     11 H                     0.204405
     12 C                    -0.026273
     13 C                    -0.248774
     14 C                     0.029025
     15 H                     0.191267
     16 C                    -0.240580
     17 S                     0.025237
     18 C                    -0.270693
     19 H                     0.102477
     20 H                     0.108661
     21 H                     0.108041
     22 H                     0.198874
  ----------------------------------------
  Sum of atomic charges =     0.000000

                    Cartesian Multipole Moments
 -----------------------------------------------------------------
    Charge (ESU x 10^10)
                -0.0000
    Dipole Moment (Debye)
         X       1.8393      Y       0.2657      Z       2.2711
       Tot       2.9345
    Quadrupole Moments (Debye-Ang)
        XX     -87.1258     XY       0.7921     YY     -69.4499
        XZ       3.1385     YZ      -0.0453     ZZ     -85.0939

 Total job time:  53.18s(wall), 1878.67s(cpu)
        *  Thank you very much for using Q-Chem.  Have a nice day.  *
