 Q-Chem 5.4, Q-Chem, Inc., Pleasanton, CA (2021)
 Q-Chem 5.4.0 for Intel X86 EM64T Linux

User input:
--------------------------------------------------------------
$molecule
0 1
C	0.248806	-3.887800	-0.680396
C	-0.225147	-3.701456	0.621614
C	-0.370780	-2.345170	1.019896
H	-0.466300	-4.545233	1.285337
C	0.000000	-1.450135	0.000000
S	0.522786	-2.321334	-1.435271
C	-0.865597	-1.934439	2.378891
H	-1.092567	-2.819799	3.003720
H	-1.791940	-1.326210	2.313975
H	-0.114772	-1.325374	2.924390
H	0.448750	-4.815326	-1.228514
C	0.000000	0.000000	0.000000
C	0.645024	0.545262	1.113020
C	1.707554	1.442954	0.820578
H	0.348587	0.294774	2.142881
C	1.897227	1.602964	-0.563588
S	0.741155	0.626722	-1.464748
C	2.520787	2.130014	1.882380
H	2.178559	1.840981	2.894974
H	2.446016	3.235078	1.808137
H	3.597818	1.871604	1.808230
H	2.628997	2.221299	-1.097114
$end

$rem
JOBTYPE		SP
EXCHANGE	HF
CORRELATION	pRIMP2
BASIS		cc-pvtz
METHOD		rimp2
AUX_BASIS	rimp2-cc-pvtz
SOLVENT_METHOD	PCM
PURECART	11111
SYMMETRY	false
MEM_TOTAL	110000
SCF_CONVERGENCE = 6
THRESH=10
GUI = 2
$end

$solvent
dielectric 4.90
$end
--------------------------------------------------------------

             Standard Nuclear Orientation (Angstroms)
    I     Atom           X                Y                Z
 ----------------------------------------------------------------
    1      C       0.2488060000    -3.8878000000    -0.6803960000
    2      C      -0.2251470000    -3.7014560000     0.6216140000
    3      C      -0.3707800000    -2.3451700000     1.0198960000
    4      H      -0.4663000000    -4.5452330000     1.2853370000
    5      C       0.0000000000    -1.4501350000     0.0000000000
    6      S       0.5227860000    -2.3213340000    -1.4352710000
    7      C      -0.8655970000    -1.9344390000     2.3788910000
    8      H      -1.0925670000    -2.8197990000     3.0037200000
    9      H      -1.7919400000    -1.3262100000     2.3139750000
   10      H      -0.1147720000    -1.3253740000     2.9243900000
   11      H       0.4487500000    -4.8153260000    -1.2285140000
   12      C       0.0000000000     0.0000000000     0.0000000000
   13      C       0.6450240000     0.5452620000     1.1130200000
   14      C       1.7075540000     1.4429540000     0.8205780000
   15      H       0.3485870000     0.2947740000     2.1428810000
   16      C       1.8972270000     1.6029640000    -0.5635880000
   17      S       0.7411550000     0.6267220000    -1.4647480000
   18      C       2.5207870000     2.1300140000     1.8823800000
   19      H       2.1785590000     1.8409810000     2.8949740000
   20      H       2.4460160000     3.2350780000     1.8081370000
   21      H       3.5978180000     1.8716040000     1.8082300000
   22      H       2.6289970000     2.2212990000    -1.0971140000
 ----------------------------------------------------------------

   11   -1179.6329716822      4.88e-07  Convergence criterion met
 Total energy in the final basis set =    -1179.6329716822
        RIMP2         total energy =     -1181.6249435034 a.u.

                    Orbital Energies (a.u.)
 --------------------------------------------------------------

 Alpha MOs
 -- Occupied --
-91.9858 -91.9789 -11.2857 -11.2799 -11.2675 -11.2604 -11.2563 -11.2561
-11.2384 -11.2349 -11.2321 -11.2271  -8.9864  -8.9788  -6.6672  -6.6665
 -6.6661  -6.6597  -6.6591  -6.6584  -1.1892  -1.1465  -1.0462  -1.0228
 -0.9969  -0.9554  -0.9107  -0.8941  -0.8006  -0.7549  -0.7310  -0.6997
 -0.6549  -0.6176  -0.5967  -0.5821  -0.5706  -0.5597  -0.5496  -0.5419
 -0.5333  -0.5184  -0.5055  -0.4880  -0.4840  -0.4661  -0.4461  -0.3706
 -0.3456  -0.3326  -0.2642

          Ground-State Mulliken Net Atomic Charges

     Atom                 Charge (a.u.)
  ----------------------------------------
      1 C                    -0.256022
      2 C                    -0.240695
      3 C                     0.018239
      4 H                     0.181775
      5 C                    -0.002173
      6 S                     0.007779
      7 C                    -0.305863
      8 H                     0.112419
      9 H                     0.112057
     10 H                     0.094001
     11 H                     0.200789
     12 C                    -0.070024
     13 C                    -0.133632
     14 C                    -0.012536
     15 H                     0.200698
     16 C                    -0.184343
     17 S                     0.021289
     18 C                    -0.267244
     19 H                     0.102383
     20 H                     0.108954
     21 H                     0.107886
     22 H                     0.204264
  ----------------------------------------
  Sum of atomic charges =     0.000000

                    Cartesian Multipole Moments
 -----------------------------------------------------------------
    Charge (ESU x 10^10)
                -0.0000
    Dipole Moment (Debye)
         X       1.8901      Y       1.4643      Z       2.9041
       Tot       3.7617
    Quadrupole Moments (Debye-Ang)
        XX     -84.4178     XY       7.1595     YY     -78.9951
        XZ      -1.2512     YZ      -1.5885     ZZ     -80.7543

 Total job time:  59.07s(wall), 2113.26s(cpu)
        *  Thank you very much for using Q-Chem.  Have a nice day.  *
