 Q-Chem 5.4, Q-Chem, Inc., Pleasanton, CA (2021)
 Q-Chem 5.4.0 for Intel X86 EM64T Linux

User input:
--------------------------------------------------------------
$molecule
0 1
C	0.124726	-3.887800	0.713644
C	-0.115824	-3.701456	-0.650907
C	-0.188844	-2.345170	-1.068646
H	-0.238841	-4.545233	-1.346284
C	0.000000	-1.450135	0.000000
S	0.264890	-2.321334	1.504375
C	-0.439816	-1.934439	-2.492978
H	-0.555669	-2.819799	-3.147582
H	0.394879	-1.326210	-2.899931
H	-1.362799	-1.325374	-2.589982
H	0.225628	-4.815326	1.288299
C	0.000000	0.000000	0.000000
C	0.143630	0.832309	1.113020
C	0.380550	2.202961	0.820578
H	0.077556	0.449877	2.142881
C	0.422995	2.447456	-0.563588
S	0.164909	0.956502	-1.464748
C	0.561888	3.252016	1.882380
H	0.485513	2.810624	2.894974
H	-0.205711	4.050482	1.808137
H	1.553045	3.746365	1.808230
H	0.586105	3.391501	-1.097114
$end

$rem
JOBTYPE		SP
EXCHANGE	HF
CORRELATION	pRIMP2
BASIS		cc-pvtz
METHOD		rimp2
AUX_BASIS	rimp2-cc-pvtz
SOLVENT_METHOD	PCM
PURECART	11111
SYMMETRY	false
MEM_TOTAL	110000
SCF_CONVERGENCE = 6
THRESH=10
GUI = 2
$end

$solvent
dielectric 4.90
$end
--------------------------------------------------------------

             Standard Nuclear Orientation (Angstroms)
    I     Atom           X                Y                Z
 ----------------------------------------------------------------
    1      C       0.1247260000    -3.8878000000     0.7136440000
    2      C      -0.1158240000    -3.7014560000    -0.6509070000
    3      C      -0.1888440000    -2.3451700000    -1.0686460000
    4      H      -0.2388410000    -4.5452330000    -1.3462840000
    5      C       0.0000000000    -1.4501350000     0.0000000000
    6      S       0.2648900000    -2.3213340000     1.5043750000
    7      C      -0.4398160000    -1.9344390000    -2.4929780000
    8      H      -0.5556690000    -2.8197990000    -3.1475820000
    9      H       0.3948790000    -1.3262100000    -2.8999310000
   10      H      -1.3627990000    -1.3253740000    -2.5899820000
   11      H       0.2256280000    -4.8153260000     1.2882990000
   12      C       0.0000000000     0.0000000000     0.0000000000
   13      C       0.1436300000     0.8323090000     1.1130200000
   14      C       0.3805500000     2.2029610000     0.8205780000
   15      H       0.0775560000     0.4498770000     2.1428810000
   16      C       0.4229950000     2.4474560000    -0.5635880000
   17      S       0.1649090000     0.9565020000    -1.4647480000
   18      C       0.5618880000     3.2520160000     1.8823800000
   19      H       0.4855130000     2.8106240000     2.8949740000
   20      H      -0.2057110000     4.0504820000     1.8081370000
   21      H       1.5530450000     3.7463650000     1.8082300000
   22      H       0.5861050000     3.3915010000    -1.0971140000
 ----------------------------------------------------------------

   10   -1179.6850832506      5.39e-07  Convergence criterion met
 Total energy in the final basis set =    -1179.6850832506
        RIMP2         total energy =     -1181.6655218157 a.u.

                    Orbital Energies (a.u.)
 --------------------------------------------------------------

 Alpha MOs
 -- Occupied --
-91.9858 -91.9855 -11.2842 -11.2788 -11.2733 -11.2625 -11.2535 -11.2523
-11.2439 -11.2393 -11.2303 -11.2290  -8.9856  -8.9852  -6.6665  -6.6661
 -6.6660  -6.6656  -6.6653  -6.6649  -1.1810  -1.1502  -1.0415  -1.0256
 -0.9986  -0.9524  -0.9149  -0.8955  -0.7996  -0.7651  -0.7194  -0.6957
 -0.6633  -0.6161  -0.5840  -0.5820  -0.5774  -0.5697  -0.5528  -0.5337
 -0.5232  -0.5205  -0.5108  -0.4976  -0.4906  -0.4680  -0.4513  -0.3695
 -0.3437  -0.3405  -0.2694

          Ground-State Mulliken Net Atomic Charges

     Atom                 Charge (a.u.)
  ----------------------------------------
      1 C                    -0.210974
      2 C                    -0.255754
      3 C                     0.053933
      4 H                     0.185772
      5 C                    -0.025070
      6 S                     0.008467
      7 C                    -0.322845
      8 H                     0.117964
      9 H                     0.113265
     10 H                     0.119482
     11 H                     0.207216
     12 C                     0.063604
     13 C                    -0.288290
     14 C                     0.043753
     15 H                     0.176263
     16 C                    -0.262121
     17 S                     0.026591
     18 C                    -0.270527
     19 H                     0.102872
     20 H                     0.108285
     21 H                     0.109052
     22 H                     0.199064
  ----------------------------------------
  Sum of atomic charges =     0.000000

                    Cartesian Multipole Moments
 -----------------------------------------------------------------
    Charge (ESU x 10^10)
                -0.0000
    Dipole Moment (Debye)
         X       0.0348      Y       0.0391      Z      -0.1347
       Tot       0.1445
    Quadrupole Moments (Debye-Ang)
        XX     -92.2737     XY       2.2402     YY     -68.8353
        XZ       1.3866     YZ       3.5141     ZZ     -79.9719

 Total job time:  54.00s(wall), 1903.52s(cpu)
        *  Thank you very much for using Q-Chem.  Have a nice day.  *
