 Q-Chem 5.4, Q-Chem, Inc., Pleasanton, CA (2021)
 Q-Chem 5.4.0 for Intel X86 EM64T Linux

User input:
--------------------------------------------------------------
$molecule
0 1
C	0.680396	-3.887800	0.248806
C	-0.621614	-3.701456	-0.225147
C	-1.019896	-2.345170	-0.370780
H	-1.285337	-4.545233	-0.466300
C	0.000000	-1.450135	0.000000
S	1.435271	-2.321334	0.522786
C	-2.378891	-1.934439	-0.865597
H	-3.003720	-2.819799	-1.092567
H	-2.313975	-1.326210	-1.791940
H	-2.924390	-1.325374	-0.114772
H	1.228514	-4.815326	0.448750
C	0.000000	0.000000	0.000000
C	0.645024	0.545262	1.113020
C	1.707554	1.442954	0.820578
H	0.348587	0.294774	2.142881
C	1.897227	1.602964	-0.563588
S	0.741155	0.626722	-1.464748
C	2.520787	2.130014	1.882380
H	2.178559	1.840981	2.894974
H	2.446016	3.235078	1.808137
H	3.597818	1.871604	1.808230
H	2.628997	2.221299	-1.097114
$end

$rem
JOBTYPE		SP
EXCHANGE	HF
CORRELATION	pRIMP2
BASIS		cc-pvtz
METHOD		rimp2
AUX_BASIS	rimp2-cc-pvtz
SOLVENT_METHOD	PCM
PURECART	11111
SYMMETRY	false
MEM_TOTAL	110000
SCF_CONVERGENCE = 6
THRESH=10
GUI = 2
$end

$solvent
dielectric 4.90
$end
--------------------------------------------------------------

             Standard Nuclear Orientation (Angstroms)
    I     Atom           X                Y                Z
 ----------------------------------------------------------------
    1      C       0.6803960000    -3.8878000000     0.2488060000
    2      C      -0.6216140000    -3.7014560000    -0.2251470000
    3      C      -1.0198960000    -2.3451700000    -0.3707800000
    4      H      -1.2853370000    -4.5452330000    -0.4663000000
    5      C       0.0000000000    -1.4501350000     0.0000000000
    6      S       1.4352710000    -2.3213340000     0.5227860000
    7      C      -2.3788910000    -1.9344390000    -0.8655970000
    8      H      -3.0037200000    -2.8197990000    -1.0925670000
    9      H      -2.3139750000    -1.3262100000    -1.7919400000
   10      H      -2.9243900000    -1.3253740000    -0.1147720000
   11      H       1.2285140000    -4.8153260000     0.4487500000
   12      C       0.0000000000     0.0000000000     0.0000000000
   13      C       0.6450240000     0.5452620000     1.1130200000
   14      C       1.7075540000     1.4429540000     0.8205780000
   15      H       0.3485870000     0.2947740000     2.1428810000
   16      C       1.8972270000     1.6029640000    -0.5635880000
   17      S       0.7411550000     0.6267220000    -1.4647480000
   18      C       2.5207870000     2.1300140000     1.8823800000
   19      H       2.1785590000     1.8409810000     2.8949740000
   20      H       2.4460160000     3.2350780000     1.8081370000
   21      H       3.5978180000     1.8716040000     1.8082300000
   22      H       2.6289970000     2.2212990000    -1.0971140000
 ----------------------------------------------------------------

   10   -1179.6407595645      6.32e-07  Convergence criterion met
 Total energy in the final basis set =    -1179.6407595645
        RIMP2         total energy =     -1181.6294259017 a.u.

                    Orbital Energies (a.u.)
 --------------------------------------------------------------

 Alpha MOs
 -- Occupied --
-91.9832 -91.9794 -11.2828 -11.2706 -11.2664 -11.2593 -11.2560 -11.2532
-11.2424 -11.2380 -11.2305 -11.2261  -8.9833  -8.9793  -6.6642  -6.6634
 -6.6630  -6.6602  -6.6597  -6.6590  -1.1851  -1.1467  -1.0428  -1.0187
 -0.9996  -0.9498  -0.9132  -0.8906  -0.7963  -0.7549  -0.7332  -0.6891
 -0.6577  -0.6201  -0.5845  -0.5802  -0.5700  -0.5689  -0.5488  -0.5339
 -0.5287  -0.5158  -0.5080  -0.4915  -0.4678  -0.4646  -0.4611  -0.3529
 -0.3344  -0.3248  -0.2908

          Ground-State Mulliken Net Atomic Charges

     Atom                 Charge (a.u.)
  ----------------------------------------
      1 C                    -0.221804
      2 C                    -0.249252
      3 C                     0.043252
      4 H                     0.182199
      5 C                    -0.040236
      6 S                     0.015558
      7 C                    -0.287249
      8 H                     0.106940
      9 H                     0.107796
     10 H                     0.109493
     11 H                     0.202325
     12 C                    -0.066264
     13 C                    -0.224587
     14 C                     0.030280
     15 H                     0.191312
     16 C                    -0.193937
     17 S                     0.038973
     18 C                    -0.265786
     19 H                     0.103563
     20 H                     0.108397
     21 H                     0.107423
     22 H                     0.201604
  ----------------------------------------
  Sum of atomic charges =     0.000000

                    Cartesian Multipole Moments
 -----------------------------------------------------------------
    Charge (ESU x 10^10)
                -0.0000
    Dipole Moment (Debye)
         X       0.8025      Y       0.7021      Z       1.1017
       Tot       1.5332
    Quadrupole Moments (Debye-Ang)
        XX     -80.0761     XY       8.3077     YY     -76.7294
        XZ       2.6455     YZ       1.5183     ZZ     -85.4134

 Total job time:  53.51s(wall), 1799.29s(cpu)
        *  Thank you very much for using Q-Chem.  Have a nice day.  *
