 Q-Chem 5.4, Q-Chem, Inc., Pleasanton, CA (2021)
 Q-Chem 5.4.0 for Intel X86 EM64T Linux

User input:
--------------------------------------------------------------
$molecule
0 1
C	-0.246754	-3.887800	-0.681143
C	0.227093	-3.701456	0.620906
C	0.371543	-2.345170	1.019618
H	0.468992	-4.545233	1.284357
C	-0.000000	-1.450135	-0.000000
S	-0.522097	-2.321334	-1.435522
C	0.866035	-1.934439	2.378731
H	1.093799	-2.819799	3.003272
H	0.114688	-1.326210	2.924444
H	1.791841	-1.325374	2.313987
H	-0.445911	-4.815326	-1.229547
C	0.000000	0.000000	0.000000
C	0.215623	0.816623	1.113020
C	0.571102	2.161411	0.820578
H	0.116470	0.441406	2.142881
C	0.634696	2.401276	-0.563588
S	0.247646	0.938489	-1.464748
C	0.843182	3.190669	1.882380
H	0.728628	2.757614	2.894974
H	0.148095	4.052998	1.808137
H	1.873652	3.596752	1.808230
H	0.879464	3.327513	-1.097114
$end

$rem
JOBTYPE		SP
EXCHANGE	HF
CORRELATION	pRIMP2
BASIS		cc-pvtz
METHOD		rimp2
AUX_BASIS	rimp2-cc-pvtz
SOLVENT_METHOD	PCM
PURECART	11111
SYMMETRY	false
MEM_TOTAL	110000
SCF_CONVERGENCE = 6
THRESH=10
GUI = 2
$end

$solvent
dielectric 4.90
$end
--------------------------------------------------------------

             Standard Nuclear Orientation (Angstroms)
    I     Atom           X                Y                Z
 ----------------------------------------------------------------
    1      C      -0.2467540000    -3.8878000000    -0.6811430000
    2      C       0.2270930000    -3.7014560000     0.6209060000
    3      C       0.3715430000    -2.3451700000     1.0196180000
    4      H       0.4689920000    -4.5452330000     1.2843570000
    5      C       0.0000000000    -1.4501350000     0.0000000000
    6      S      -0.5220970000    -2.3213340000    -1.4355220000
    7      C       0.8660350000    -1.9344390000     2.3787310000
    8      H       1.0937990000    -2.8197990000     3.0032720000
    9      H       0.1146880000    -1.3262100000     2.9244440000
   10      H       1.7918410000    -1.3253740000     2.3139870000
   11      H      -0.4459110000    -4.8153260000    -1.2295470000
   12      C       0.0000000000     0.0000000000     0.0000000000
   13      C       0.2156230000     0.8166230000     1.1130200000
   14      C       0.5711020000     2.1614110000     0.8205780000
   15      H       0.1164700000     0.4414060000     2.1428810000
   16      C       0.6346960000     2.4012760000    -0.5635880000
   17      S       0.2476460000     0.9384890000    -1.4647480000
   18      C       0.8431820000     3.1906690000     1.8823800000
   19      H       0.7286280000     2.7576140000     2.8949740000
   20      H       0.1480950000     4.0529980000     1.8081370000
   21      H       1.8736520000     3.5967520000     1.8082300000
   22      H       0.8794640000     3.3275130000    -1.0971140000
 ----------------------------------------------------------------

   10   -1179.6806297824      5.01e-07  Convergence criterion met
 Total energy in the final basis set =    -1179.6806297824
        RIMP2         total energy =     -1181.6617307837 a.u.

                    Orbital Energies (a.u.)
 --------------------------------------------------------------

 Alpha MOs
 -- Occupied --
-91.9857 -91.9851 -11.2822 -11.2789 -11.2727 -11.2655 -11.2534 -11.2522
-11.2440 -11.2399 -11.2311 -11.2296  -8.9854  -8.9850  -6.6663  -6.6659
 -6.6658  -6.6654  -6.6651  -6.6648  -1.1810  -1.1502  -1.0411  -1.0272
 -0.9957  -0.9556  -0.9148  -0.8947  -0.8015  -0.7560  -0.7277  -0.7012
 -0.6613  -0.6150  -0.5914  -0.5820  -0.5704  -0.5626  -0.5510  -0.5398
 -0.5295  -0.5229  -0.5040  -0.4926  -0.4863  -0.4746  -0.4533  -0.3662
 -0.3463  -0.3386  -0.2714

          Ground-State Mulliken Net Atomic Charges

     Atom                 Charge (a.u.)
  ----------------------------------------
      1 C                    -0.213163
      2 C                    -0.250488
      3 C                     0.066300
      4 H                     0.185418
      5 C                    -0.042616
      6 S                     0.012818
      7 C                    -0.309139
      8 H                     0.117294
      9 H                     0.104710
     10 H                     0.118095
     11 H                     0.206372
     12 C                     0.032206
     13 C                    -0.279638
     14 C                     0.044669
     15 H                     0.196000
     16 C                    -0.255655
     17 S                     0.018627
     18 C                    -0.270277
     19 H                     0.101750
     20 H                     0.108677
     21 H                     0.108982
     22 H                     0.199058
  ----------------------------------------
  Sum of atomic charges =     0.000000

                    Cartesian Multipole Moments
 -----------------------------------------------------------------
    Charge (ESU x 10^10)
                -0.0000
    Dipole Moment (Debye)
         X       1.0205      Y       0.1786      Z       2.9271
       Tot       3.1050
    Quadrupole Moments (Debye-Ang)
        XX     -91.2472     XY       1.9602     YY     -69.1613
        XZ       2.4742     YZ      -1.0544     ZZ     -80.8660

 Total job time:  61.52s(wall), 2450.95s(cpu)
        *  Thank you very much for using Q-Chem.  Have a nice day.  *
