 Q-Chem 5.4, Q-Chem, Inc., Pleasanton, CA (2021)
 Q-Chem 5.4.0 for Intel X86 EM64T Linux

User input:
--------------------------------------------------------------
$molecule
0 1
C	0.681143	-3.887800	-0.246754
C	-0.620906	-3.701456	0.227093
C	-1.019618	-2.345170	0.371543
H	-1.284357	-4.545233	0.468992
C	-0.000000	-1.450135	-0.000000
S	1.435522	-2.321334	-0.522097
C	-2.378731	-1.934439	0.866035
H	-3.003272	-2.819799	1.093799
H	-2.924444	-1.326210	0.114688
H	-2.313987	-1.325374	1.791841
H	1.229547	-4.815326	-0.445911
C	0.000000	0.000000	0.000000
C	0.070542	0.841660	1.113020
C	0.187101	2.227746	0.820578
H	0.038051	0.454925	2.142881
C	0.208076	2.475009	-0.563588
S	0.080917	0.967235	-1.464748
C	0.276318	3.288613	1.882380
H	0.238704	2.842244	2.894974
H	-0.557951	4.017140	1.808137
H	1.220618	3.867466	1.808230
H	0.288286	3.429678	-1.097114
$end

$rem
JOBTYPE		SP
EXCHANGE	HF
CORRELATION	pRIMP2
BASIS		cc-pvtz
METHOD		rimp2
AUX_BASIS	rimp2-cc-pvtz
SOLVENT_METHOD	PCM
PURECART	11111
SYMMETRY	false
MEM_TOTAL	110000
SCF_CONVERGENCE = 6
THRESH=10
GUI = 2
$end

$solvent
dielectric 4.90
$end
--------------------------------------------------------------

             Standard Nuclear Orientation (Angstroms)
    I     Atom           X                Y                Z
 ----------------------------------------------------------------
    1      C       0.6811430000    -3.8878000000    -0.2467540000
    2      C      -0.6209060000    -3.7014560000     0.2270930000
    3      C      -1.0196180000    -2.3451700000     0.3715430000
    4      H      -1.2843570000    -4.5452330000     0.4689920000
    5      C       0.0000000000    -1.4501350000     0.0000000000
    6      S       1.4355220000    -2.3213340000    -0.5220970000
    7      C      -2.3787310000    -1.9344390000     0.8660350000
    8      H      -3.0032720000    -2.8197990000     1.0937990000
    9      H      -2.9244440000    -1.3262100000     0.1146880000
   10      H      -2.3139870000    -1.3253740000     1.7918410000
   11      H       1.2295470000    -4.8153260000    -0.4459110000
   12      C       0.0000000000     0.0000000000     0.0000000000
   13      C       0.0705420000     0.8416600000     1.1130200000
   14      C       0.1871010000     2.2277460000     0.8205780000
   15      H       0.0380510000     0.4549250000     2.1428810000
   16      C       0.2080760000     2.4750090000    -0.5635880000
   17      S       0.0809170000     0.9672350000    -1.4647480000
   18      C       0.2763180000     3.2886130000     1.8823800000
   19      H       0.2387040000     2.8422440000     2.8949740000
   20      H      -0.5579510000     4.0171400000     1.8081370000
   21      H       1.2206180000     3.8674660000     1.8082300000
   22      H       0.2882860000     3.4296780000    -1.0971140000
 ----------------------------------------------------------------

   10   -1179.6857765433      5.14e-07  Convergence criterion met
 Total energy in the final basis set =    -1179.6857765433
        RIMP2         total energy =     -1181.6634292992 a.u.

                    Orbital Energies (a.u.)
 --------------------------------------------------------------

 Alpha MOs
 -- Occupied --
-91.9859 -91.9854 -11.2796 -11.2741 -11.2728 -11.2649 -11.2535 -11.2511
-11.2423 -11.2415 -11.2292 -11.2292  -8.9853  -8.9849  -6.6662  -6.6658
 -6.6657  -6.6653  -6.6651  -6.6647  -1.1781  -1.1497  -1.0393  -1.0233
 -0.9963  -0.9546  -0.9128  -0.8928  -0.8005  -0.7523  -0.7308  -0.6954
 -0.6621  -0.6163  -0.5832  -0.5795  -0.5700  -0.5677  -0.5516  -0.5316
 -0.5297  -0.5199  -0.5069  -0.4918  -0.4887  -0.4666  -0.4616  -0.3477
 -0.3384  -0.3288  -0.2963

          Ground-State Mulliken Net Atomic Charges

     Atom                 Charge (a.u.)
  ----------------------------------------
      1 C                    -0.210750
      2 C                    -0.249654
      3 C                     0.047693
      4 H                     0.185295
      5 C                    -0.050885
      6 S                     0.024222
      7 C                    -0.282606
      8 H                     0.108410
      9 H                     0.111614
     10 H                     0.108704
     11 H                     0.204342
     12 C                    -0.008011
     13 C                    -0.223619
     14 C                     0.015731
     15 H                     0.187402
     16 C                    -0.237778
     17 S                     0.024190
     18 C                    -0.271565
     19 H                     0.102643
     20 H                     0.107837
     21 H                     0.108501
     22 H                     0.198285
  ----------------------------------------
  Sum of atomic charges =     0.000000

                    Cartesian Multipole Moments
 -----------------------------------------------------------------
    Charge (ESU x 10^10)
                -0.0000
    Dipole Moment (Debye)
         X      -1.2638      Y       0.2460      Z       1.9994
       Tot       2.3781
    Quadrupole Moments (Debye-Ang)
        XX     -86.8431     XY       2.9856     YY     -68.8084
        XZ      -2.0141     YZ       0.3484     ZZ     -85.9722

 Total job time:  56.56s(wall), 1945.87s(cpu)
        *  Thank you very much for using Q-Chem.  Have a nice day.  *
