 Q-Chem 5.4, Q-Chem, Inc., Pleasanton, CA (2021)
 Q-Chem 5.4.0 for Intel X86 EM64T Linux

User input:
--------------------------------------------------------------
$molecule
0 1
C	0.680396	-3.887800	0.248806
C	-0.621614	-3.701456	-0.225147
C	-1.019896	-2.345170	-0.370780
H	-1.285337	-4.545233	-0.466300
C	-0.000000	-1.450135	-0.000000
S	1.435271	-2.321334	0.522786
C	-2.378891	-1.934439	-0.865597
H	-3.003720	-2.819799	-1.092567
H	-2.313975	-1.326210	-1.791940
H	-2.924390	-1.325374	-0.114772
H	1.228514	-4.815326	0.448750
C	0.000000	0.000000	0.000000
C	0.215623	0.816623	1.113020
C	0.571102	2.161411	0.820578
H	0.116470	0.441406	2.142881
C	0.634696	2.401276	-0.563588
S	0.247646	0.938489	-1.464748
C	0.843182	3.190669	1.882380
H	0.728628	2.757614	2.894974
H	0.148095	4.052998	1.808137
H	1.873652	3.596752	1.808230
H	0.879464	3.327513	-1.097114
$end

$rem
JOBTYPE		SP
EXCHANGE	HF
CORRELATION	pRIMP2
BASIS		cc-pvtz
METHOD		rimp2
AUX_BASIS	rimp2-cc-pvtz
SOLVENT_METHOD	PCM
PURECART	11111
SYMMETRY	false
MEM_TOTAL	110000
SCF_CONVERGENCE = 6
THRESH=10
GUI = 2
$end

$solvent
dielectric 4.90
$end
--------------------------------------------------------------

             Standard Nuclear Orientation (Angstroms)
    I     Atom           X                Y                Z
 ----------------------------------------------------------------
    1      C       0.6803960000    -3.8878000000     0.2488060000
    2      C      -0.6216140000    -3.7014560000    -0.2251470000
    3      C      -1.0198960000    -2.3451700000    -0.3707800000
    4      H      -1.2853370000    -4.5452330000    -0.4663000000
    5      C       0.0000000000    -1.4501350000     0.0000000000
    6      S       1.4352710000    -2.3213340000     0.5227860000
    7      C      -2.3788910000    -1.9344390000    -0.8655970000
    8      H      -3.0037200000    -2.8197990000    -1.0925670000
    9      H      -2.3139750000    -1.3262100000    -1.7919400000
   10      H      -2.9243900000    -1.3253740000    -0.1147720000
   11      H       1.2285140000    -4.8153260000     0.4487500000
   12      C       0.0000000000     0.0000000000     0.0000000000
   13      C       0.2156230000     0.8166230000     1.1130200000
   14      C       0.5711020000     2.1614110000     0.8205780000
   15      H       0.1164700000     0.4414060000     2.1428810000
   16      C       0.6346960000     2.4012760000    -0.5635880000
   17      S       0.2476460000     0.9384890000    -1.4647480000
   18      C       0.8431820000     3.1906690000     1.8823800000
   19      H       0.7286280000     2.7576140000     2.8949740000
   20      H       0.1480950000     4.0529980000     1.8081370000
   21      H       1.8736520000     3.5967520000     1.8082300000
   22      H       0.8794640000     3.3275130000    -1.0971140000
 ----------------------------------------------------------------

   10   -1179.6829400566      5.07e-07  Convergence criterion met
 Total energy in the final basis set =    -1179.6829400566
        RIMP2         total energy =     -1181.6612075522 a.u.

                    Orbital Energies (a.u.)
 --------------------------------------------------------------

 Alpha MOs
 -- Occupied --
-91.9856 -91.9851 -11.2779 -11.2731 -11.2725 -11.2662 -11.2523 -11.2511
-11.2424 -11.2418 -11.2291 -11.2290  -8.9851  -8.9846  -6.6659  -6.6655
 -6.6654  -6.6650  -6.6648  -6.6644  -1.1783  -1.1495  -1.0394  -1.0227
 -0.9974  -0.9529  -0.9137  -0.8923  -0.7994  -0.7562  -0.7276  -0.6935
 -0.6620  -0.6167  -0.5826  -0.5789  -0.5717  -0.5693  -0.5513  -0.5323
 -0.5273  -0.5189  -0.5072  -0.4935  -0.4870  -0.4656  -0.4615  -0.3458
 -0.3388  -0.3292  -0.2964

          Ground-State Mulliken Net Atomic Charges

     Atom                 Charge (a.u.)
  ----------------------------------------
      1 C                    -0.208130
      2 C                    -0.251891
      3 C                     0.047078
      4 H                     0.184624
      5 C                    -0.048419
      6 S                     0.026524
      7 C                    -0.283815
      8 H                     0.107058
      9 H                     0.109276
     10 H                     0.110822
     11 H                     0.204228
     12 C                     0.005850
     13 C                    -0.256185
     14 C                     0.032445
     15 H                     0.186889
     16 C                    -0.238863
     17 S                     0.025362
     18 C                    -0.270460
     19 H                     0.102902
     20 H                     0.107827
     21 H                     0.108384
     22 H                     0.198493
  ----------------------------------------
  Sum of atomic charges =     0.000000

                    Cartesian Multipole Moments
 -----------------------------------------------------------------
    Charge (ESU x 10^10)
                -0.0000
    Dipole Moment (Debye)
         X      -0.9065      Y       0.2579      Z       0.9581
       Tot       1.3439
    Quadrupole Moments (Debye-Ang)
        XX     -86.1677     XY       4.8122     YY     -69.4650
        XZ       2.4570     YZ       1.8573     ZZ     -85.9272

 Total job time:  50.98s(wall), 1791.16s(cpu)
        *  Thank you very much for using Q-Chem.  Have a nice day.  *
