 Q-Chem 5.4, Q-Chem, Inc., Pleasanton, CA (2021)
 Q-Chem 5.4.0 for Intel X86 EM64T Linux

User input:
--------------------------------------------------------------
$molecule
0 1
C	0.681143	-3.887800	-0.246754
C	-0.620906	-3.701456	0.227093
C	-1.019618	-2.345170	0.371543
H	-1.284357	-4.545233	0.468992
C	0.000000	-1.450135	0.000000
S	1.435522	-2.321334	-0.522097
C	-2.378731	-1.934439	0.866035
H	-3.003272	-2.819799	1.093799
H	-2.924444	-1.326210	0.114688
H	-2.313987	-1.325374	1.791841
H	1.229547	-4.815326	-0.445911
C	0.000000	0.000000	0.000000
C	-0.003081	0.844605	1.113020
C	-0.007772	2.235575	0.820578
H	-0.001743	0.456510	2.142881
C	-0.008427	2.483726	-0.563588
S	-0.003691	0.970607	-1.464748
C	-0.011355	3.300181	1.882380
H	-0.009922	2.852233	2.894974
H	-0.905944	3.953225	1.808137
H	0.878901	3.959133	1.808230
H	-0.011727	3.441752	-1.097114
$end

$rem
JOBTYPE		SP
EXCHANGE	HF
CORRELATION	pRIMP2
BASIS		cc-pvtz
METHOD		rimp2
AUX_BASIS	rimp2-cc-pvtz
SOLVENT_METHOD	PCM
PURECART	11111
SYMMETRY	false
MEM_TOTAL	110000
SCF_CONVERGENCE = 6
THRESH=10
GUI = 2
$end

$solvent
dielectric 4.90
$end
--------------------------------------------------------------

             Standard Nuclear Orientation (Angstroms)
    I     Atom           X                Y                Z
 ----------------------------------------------------------------
    1      C       0.6811430000    -3.8878000000    -0.2467540000
    2      C      -0.6209060000    -3.7014560000     0.2270930000
    3      C      -1.0196180000    -2.3451700000     0.3715430000
    4      H      -1.2843570000    -4.5452330000     0.4689920000
    5      C       0.0000000000    -1.4501350000     0.0000000000
    6      S       1.4355220000    -2.3213340000    -0.5220970000
    7      C      -2.3787310000    -1.9344390000     0.8660350000
    8      H      -3.0032720000    -2.8197990000     1.0937990000
    9      H      -2.9244440000    -1.3262100000     0.1146880000
   10      H      -2.3139870000    -1.3253740000     1.7918410000
   11      H       1.2295470000    -4.8153260000    -0.4459110000
   12      C       0.0000000000     0.0000000000     0.0000000000
   13      C      -0.0030810000     0.8446050000     1.1130200000
   14      C      -0.0077720000     2.2355750000     0.8205780000
   15      H      -0.0017430000     0.4565100000     2.1428810000
   16      C      -0.0084270000     2.4837260000    -0.5635880000
   17      S      -0.0036910000     0.9706070000    -1.4647480000
   18      C      -0.0113550000     3.3001810000     1.8823800000
   19      H      -0.0099220000     2.8522330000     2.8949740000
   20      H      -0.9059440000     3.9532250000     1.8081370000
   21      H       0.8789010000     3.9591330000     1.8082300000
   22      H      -0.0117270000     3.4417520000    -1.0971140000
 ----------------------------------------------------------------

   10   -1179.6862381975      5.17e-07  Convergence criterion met
 Total energy in the final basis set =    -1179.6862381975
        RIMP2         total energy =     -1181.6639017077 a.u.

                    Orbital Energies (a.u.)
 --------------------------------------------------------------

 Alpha MOs
 -- Occupied --
-91.9858 -91.9853 -11.2796 -11.2741 -11.2730 -11.2648 -11.2539 -11.2511
-11.2424 -11.2413 -11.2292 -11.2292  -8.9853  -8.9849  -6.6661  -6.6657
 -6.6656  -6.6652  -6.6650  -6.6646  -1.1780  -1.1497  -1.0393  -1.0233
 -0.9963  -0.9546  -0.9129  -0.8928  -0.8004  -0.7525  -0.7308  -0.6956
 -0.6621  -0.6163  -0.5831  -0.5796  -0.5702  -0.5676  -0.5516  -0.5317
 -0.5295  -0.5201  -0.5070  -0.4919  -0.4888  -0.4663  -0.4616  -0.3469
 -0.3387  -0.3292  -0.2966

          Ground-State Mulliken Net Atomic Charges

     Atom                 Charge (a.u.)
  ----------------------------------------
      1 C                    -0.212416
      2 C                    -0.248929
      3 C                     0.047138
      4 H                     0.185429
      5 C                    -0.046775
      6 S                     0.024747
      7 C                    -0.282241
      8 H                     0.108998
      9 H                     0.112083
     10 H                     0.108899
     11 H                     0.204333
     12 C                    -0.011405
     13 C                    -0.225286
     14 C                     0.015660
     15 H                     0.187854
     16 C                    -0.238655
     17 S                     0.024710
     18 C                    -0.271534
     19 H                     0.102665
     20 H                     0.107841
     21 H                     0.108513
     22 H                     0.198372
  ----------------------------------------
  Sum of atomic charges =     0.000000

                    Cartesian Multipole Moments
 -----------------------------------------------------------------
    Charge (ESU x 10^10)
                -0.0000
    Dipole Moment (Debye)
         X      -1.4369      Y       0.2307      Z       2.0006
       Tot       2.4739
    Quadrupole Moments (Debye-Ang)
        XX     -86.9197     XY       2.0446     YY     -68.6943
        XZ      -2.1222     YZ       0.3548     ZZ     -85.9831

 Total job time:  56.40s(wall), 1731.78s(cpu)
        *  Thank you very much for using Q-Chem.  Have a nice day.  *
