 Q-Chem 5.4, Q-Chem, Inc., Pleasanton, CA (2021)
 Q-Chem 5.4.0 for Intel X86 EM64T Linux

User input:
--------------------------------------------------------------
$molecule
0 1
C	0.464838	-3.887800	0.555670
C	-0.425760	-3.701456	-0.505790
C	-0.697866	-2.345170	-0.831053
H	-0.879984	-4.545233	-1.046496
C	0.000000	-1.450135	0.000000
S	0.981588	-2.321334	1.170382
C	-1.627381	-1.934439	-1.939074
H	-2.055015	-2.819799	-2.448051
H	-1.107991	-1.326210	-2.708853
H	-2.475210	-1.325374	-1.561590
H	0.839549	-4.815326	1.002886
C	0.000000	0.000000	0.000000
C	0.143630	0.832309	1.113020
C	0.380550	2.202961	0.820578
H	0.077556	0.449877	2.142881
C	0.422995	2.447456	-0.563588
S	0.164909	0.956502	-1.464748
C	0.561888	3.252016	1.882380
H	0.485513	2.810624	2.894974
H	-0.205711	4.050482	1.808137
H	1.553045	3.746365	1.808230
H	0.586105	3.391501	-1.097114
$end

$rem
JOBTYPE		SP
EXCHANGE	HF
CORRELATION	pRIMP2
BASIS		cc-pvtz
METHOD		rimp2
AUX_BASIS	rimp2-cc-pvtz
SOLVENT_METHOD	PCM
PURECART	11111
SYMMETRY	false
MEM_TOTAL	110000
SCF_CONVERGENCE = 6
THRESH=10
GUI = 2
$end

$solvent
dielectric 4.90
$end
--------------------------------------------------------------

             Standard Nuclear Orientation (Angstroms)
    I     Atom           X                Y                Z
 ----------------------------------------------------------------
    1      C       0.4648380000    -3.8878000000     0.5556700000
    2      C      -0.4257600000    -3.7014560000    -0.5057900000
    3      C      -0.6978660000    -2.3451700000    -0.8310530000
    4      H      -0.8799840000    -4.5452330000    -1.0464960000
    5      C       0.0000000000    -1.4501350000     0.0000000000
    6      S       0.9815880000    -2.3213340000     1.1703820000
    7      C      -1.6273810000    -1.9344390000    -1.9390740000
    8      H      -2.0550150000    -2.8197990000    -2.4480510000
    9      H      -1.1079910000    -1.3262100000    -2.7088530000
   10      H      -2.4752100000    -1.3253740000    -1.5615900000
   11      H       0.8395490000    -4.8153260000     1.0028860000
   12      C       0.0000000000     0.0000000000     0.0000000000
   13      C       0.1436300000     0.8323090000     1.1130200000
   14      C       0.3805500000     2.2029610000     0.8205780000
   15      H       0.0775560000     0.4498770000     2.1428810000
   16      C       0.4229950000     2.4474560000    -0.5635880000
   17      S       0.1649090000     0.9565020000    -1.4647480000
   18      C       0.5618880000     3.2520160000     1.8823800000
   19      H       0.4855130000     2.8106240000     2.8949740000
   20      H      -0.2057110000     4.0504820000     1.8081370000
   21      H       1.5530450000     3.7463650000     1.8082300000
   22      H       0.5861050000     3.3915010000    -1.0971140000
 ----------------------------------------------------------------

   10   -1179.6860199198      5.33e-07  Convergence criterion met
 Total energy in the final basis set =    -1179.6860199198
        RIMP2         total energy =     -1181.6649250961 a.u.

                    Orbital Energies (a.u.)
 --------------------------------------------------------------

 Alpha MOs
 -- Occupied --
-91.9865 -91.9855 -11.2819 -11.2762 -11.2726 -11.2647 -11.2525 -11.2518
-11.2430 -11.2407 -11.2297 -11.2291  -8.9860  -8.9851  -6.6669  -6.6664
 -6.6660  -6.6657  -6.6655  -6.6649  -1.1796  -1.1500  -1.0404  -1.0240
 -0.9984  -0.9526  -0.9146  -0.8937  -0.7997  -0.7616  -0.7228  -0.6943
 -0.6627  -0.6165  -0.5834  -0.5782  -0.5761  -0.5697  -0.5520  -0.5333
 -0.5255  -0.5194  -0.5084  -0.4963  -0.4889  -0.4680  -0.4569  -0.3561
 -0.3428  -0.3404  -0.2782

          Ground-State Mulliken Net Atomic Charges

     Atom                 Charge (a.u.)
  ----------------------------------------
      1 C                    -0.212812
      2 C                    -0.249226
      3 C                     0.033551
      4 H                     0.185362
      5 C                    -0.025415
      6 S                     0.020946
      7 C                    -0.300288
      8 H                     0.110930
      9 H                     0.112110
     10 H                     0.115796
     11 H                     0.204944
     12 C                     0.037186
     13 C                    -0.280758
     14 C                     0.037221
     15 H                     0.185486
     16 C                    -0.249145
     17 S                     0.027056
     18 C                    -0.271467
     19 H                     0.103098
     20 H                     0.108108
     21 H                     0.108875
     22 H                     0.198440
  ----------------------------------------
  Sum of atomic charges =     0.000000

                    Cartesian Multipole Moments
 -----------------------------------------------------------------
    Charge (ESU x 10^10)
                -0.0000
    Dipole Moment (Debye)
         X      -0.6584      Y       0.1824      Z       0.2818
       Tot       0.7391
    Quadrupole Moments (Debye-Ang)
        XX     -89.6801     XY       3.3059     YY     -68.9279
        XZ       3.5566     YZ       2.8557     ZZ     -82.7179

 Total job time:  81.06s(wall), 1913.96s(cpu)
        *  Thank you very much for using Q-Chem.  Have a nice day.  *
