 Q-Chem 5.4, Q-Chem, Inc., Pleasanton, CA (2021)
 Q-Chem 5.4.0 for Intel X86 EM64T Linux

User input:
--------------------------------------------------------------
$molecule
0 1
C	-0.554267	-3.887800	-0.466510
C	0.507121	-3.701456	0.424173
C	0.831575	-2.345170	0.697244
H	1.048337	-4.545233	0.877789
C	0.000000	-1.450135	0.000000
S	-1.169911	-2.321334	-0.982150
C	1.939374	-1.934439	1.627024
H	2.448894	-2.819799	2.054010
H	1.561545	-1.326210	2.475299
H	2.708773	-1.325374	1.108051
H	-1.000944	-4.815326	-0.841863
C	0.000000	0.000000	0.000000
C	0.354153	0.766774	1.113020
C	0.937751	2.029404	0.820578
H	0.191350	0.414475	2.142881
C	1.042030	2.254581	-0.563588
S	0.406851	0.881228	-1.464748
C	1.384426	2.995779	1.882380
H	1.196413	2.589194	2.894974
H	0.849641	3.965707	1.808137
H	2.469756	3.216753	1.808230
H	1.443919	3.124243	-1.097114
$end

$rem
JOBTYPE		SP
EXCHANGE	HF
CORRELATION	pRIMP2
BASIS		cc-pvtz
METHOD		rimp2
AUX_BASIS	rimp2-cc-pvtz
SOLVENT_METHOD	PCM
PURECART	11111
SYMMETRY	false
MEM_TOTAL	110000
SCF_CONVERGENCE = 6
THRESH=10
GUI = 2
$end

$solvent
dielectric 4.90
$end
--------------------------------------------------------------

             Standard Nuclear Orientation (Angstroms)
    I     Atom           X                Y                Z
 ----------------------------------------------------------------
    1      C      -0.5542670000    -3.8878000000    -0.4665100000
    2      C       0.5071210000    -3.7014560000     0.4241730000
    3      C       0.8315750000    -2.3451700000     0.6972440000
    4      H       1.0483370000    -4.5452330000     0.8777890000
    5      C       0.0000000000    -1.4501350000     0.0000000000
    6      S      -1.1699110000    -2.3213340000    -0.9821500000
    7      C       1.9393740000    -1.9344390000     1.6270240000
    8      H       2.4488940000    -2.8197990000     2.0540100000
    9      H       1.5615450000    -1.3262100000     2.4752990000
   10      H       2.7087730000    -1.3253740000     1.1080510000
   11      H      -1.0009440000    -4.8153260000    -0.8418630000
   12      C       0.0000000000     0.0000000000     0.0000000000
   13      C       0.3541530000     0.7667740000     1.1130200000
   14      C       0.9377510000     2.0294040000     0.8205780000
   15      H       0.1913500000     0.4144750000     2.1428810000
   16      C       1.0420300000     2.2545810000    -0.5635880000
   17      S       0.4068510000     0.8812280000    -1.4647480000
   18      C       1.3844260000     2.9957790000     1.8823800000
   19      H       1.1964130000     2.5891940000     2.8949740000
   20      H       0.8496410000     3.9657070000     1.8081370000
   21      H       2.4697560000     3.2167530000     1.8082300000
   22      H       1.4439190000     3.1242430000    -1.0971140000
 ----------------------------------------------------------------

   10   -1179.6747132020      5.48e-07  Convergence criterion met
 Total energy in the final basis set =    -1179.6747132020
        RIMP2         total energy =     -1181.6568810605 a.u.

                    Orbital Energies (a.u.)
 --------------------------------------------------------------

 Alpha MOs
 -- Occupied --
-91.9849 -91.9828 -11.2760 -11.2750 -11.2715 -11.2687 -11.2523 -11.2520
-11.2439 -11.2423 -11.2299 -11.2284  -8.9846  -8.9827  -6.6654  -6.6649
 -6.6643  -6.6636  -6.6630  -6.6624  -1.1799  -1.1493  -1.0405  -1.0235
 -0.9960  -0.9545  -0.9131  -0.8930  -0.7991  -0.7530  -0.7312  -0.6979
 -0.6603  -0.6161  -0.5867  -0.5803  -0.5709  -0.5638  -0.5505  -0.5355
 -0.5281  -0.5219  -0.5077  -0.4918  -0.4821  -0.4675  -0.4583  -0.3481
 -0.3417  -0.3401  -0.2829

          Ground-State Mulliken Net Atomic Charges

     Atom                 Charge (a.u.)
  ----------------------------------------
      1 C                    -0.210547
      2 C                    -0.252541
      3 C                     0.061448
      4 H                     0.185100
      5 C                    -0.032644
      6 S                     0.016775
      7 C                    -0.287934
      8 H                     0.113152
      9 H                     0.106372
     10 H                     0.116336
     11 H                     0.204387
     12 C                    -0.025599
     13 C                    -0.269029
     14 C                     0.044375
     15 H                     0.191802
     16 C                    -0.238838
     17 S                     0.027962
     18 C                    -0.269378
     19 H                     0.102453
     20 H                     0.108986
     21 H                     0.108057
     22 H                     0.199304
  ----------------------------------------
  Sum of atomic charges =     0.000000

                    Cartesian Multipole Moments
 -----------------------------------------------------------------
    Charge (ESU x 10^10)
                -0.0000
    Dipole Moment (Debye)
         X       2.0746      Y       0.3624      Z       2.5358
       Tot       3.2963
    Quadrupole Moments (Debye-Ang)
        XX     -86.9654     XY       2.5641     YY     -70.8818
        XZ       3.6576     YZ      -0.4635     ZZ     -84.0039

 Total job time:  60.62s(wall), 1899.45s(cpu)
        *  Thank you very much for using Q-Chem.  Have a nice day.  *
