 Q-Chem 5.4, Q-Chem, Inc., Pleasanton, CA (2021)
 Q-Chem 5.4.0 for Intel X86 EM64T Linux

User input:
--------------------------------------------------------------
$molecule
0 1
C	0.001092	-3.887800	-0.724460
C	0.001036	-3.701456	0.661131
C	0.000406	-2.345170	1.085203
H	0.001433	-4.545233	1.367305
C	0.000000	-1.450135	0.000000
S	0.000367	-2.321334	-1.527517
C	0.000233	-1.934439	2.531478
H	0.000656	-2.819799	3.196254
H	-0.892447	-1.326210	2.787305
H	0.892350	-1.325374	2.787282
H	0.001511	-4.815326	-1.307907
C	0.000000	0.000000	0.000000
C	0.419634	0.732990	1.113020
C	1.111057	1.939951	0.820578
H	0.226746	0.396221	2.142881
C	1.234565	2.155183	-0.563588
S	0.482106	0.842416	-1.464748
C	1.640257	2.863718	1.882380
H	1.417524	2.475067	2.894974
H	1.192042	3.876565	1.808137
H	2.740717	2.989259	1.808230
H	1.710720	2.986508	-1.097114
$end

$rem
JOBTYPE		SP
EXCHANGE	HF
CORRELATION	pRIMP2
BASIS		cc-pvtz
METHOD		rimp2
AUX_BASIS	rimp2-cc-pvtz
SOLVENT_METHOD	PCM
PURECART	11111
SYMMETRY	false
MEM_TOTAL	110000
SCF_CONVERGENCE = 6
THRESH=10
GUI = 2
$end

$solvent
dielectric 4.90
$end
--------------------------------------------------------------

             Standard Nuclear Orientation (Angstroms)
    I     Atom           X                Y                Z
 ----------------------------------------------------------------
    1      C       0.0010920000    -3.8878000000    -0.7244600000
    2      C       0.0010360000    -3.7014560000     0.6611310000
    3      C       0.0004060000    -2.3451700000     1.0852030000
    4      H       0.0014330000    -4.5452330000     1.3673050000
    5      C       0.0000000000    -1.4501350000     0.0000000000
    6      S       0.0003670000    -2.3213340000    -1.5275170000
    7      C       0.0002330000    -1.9344390000     2.5314780000
    8      H       0.0006560000    -2.8197990000     3.1962540000
    9      H      -0.8924470000    -1.3262100000     2.7873050000
   10      H       0.8923500000    -1.3253740000     2.7872820000
   11      H       0.0015110000    -4.8153260000    -1.3079070000
   12      C       0.0000000000     0.0000000000     0.0000000000
   13      C       0.4196340000     0.7329900000     1.1130200000
   14      C       1.1110570000     1.9399510000     0.8205780000
   15      H       0.2267460000     0.3962210000     2.1428810000
   16      C       1.2345650000     2.1551830000    -0.5635880000
   17      S       0.4821060000     0.8424160000    -1.4647480000
   18      C       1.6402570000     2.8637180000     1.8823800000
   19      H       1.4175240000     2.4750670000     2.8949740000
   20      H       1.1920420000     3.8765650000     1.8081370000
   21      H       2.7407170000     2.9892590000     1.8082300000
   22      H       1.7107200000     2.9865080000    -1.0971140000
 ----------------------------------------------------------------

   10   -1179.6657596162      5.33e-07  Convergence criterion met
 Total energy in the final basis set =    -1179.6657596162
        RIMP2         total energy =     -1181.6509024513 a.u.

                    Orbital Energies (a.u.)
 --------------------------------------------------------------

 Alpha MOs
 -- Occupied --
-91.9853 -91.9827 -11.2797 -11.2784 -11.2710 -11.2684 -11.2531 -11.2483
-11.2446 -11.2425 -11.2305 -11.2303  -8.9853  -8.9828  -6.6662  -6.6656
 -6.6650  -6.6637  -6.6632  -6.6625  -1.1829  -1.1495  -1.0425  -1.0268
 -0.9955  -0.9555  -0.9142  -0.8951  -0.8009  -0.7558  -0.7279  -0.7020
 -0.6593  -0.6148  -0.5935  -0.5826  -0.5706  -0.5618  -0.5509  -0.5411
 -0.5301  -0.5226  -0.5034  -0.4912  -0.4828  -0.4758  -0.4495  -0.3702
 -0.3481  -0.3358  -0.2670

          Ground-State Mulliken Net Atomic Charges

     Atom                 Charge (a.u.)
  ----------------------------------------
      1 C                    -0.224524
      2 C                    -0.246877
      3 C                     0.052326
      4 H                     0.184863
      5 C                    -0.035943
      6 S                     0.006673
      7 C                    -0.310606
      8 H                     0.117646
      9 H                     0.108866
     10 H                     0.105566
     11 H                     0.205269
     12 C                     0.017719
     13 C                    -0.238132
     14 C                     0.029180
     15 H                     0.196149
     16 C                    -0.234894
     17 S                     0.015252
     18 C                    -0.269029
     19 H                     0.101681
     20 H                     0.109062
     21 H                     0.108593
     22 H                     0.201159
  ----------------------------------------
  Sum of atomic charges =     0.000000

                    Cartesian Multipole Moments
 -----------------------------------------------------------------
    Charge (ESU x 10^10)
                -0.0000
    Dipole Moment (Debye)
         X       1.1211      Y       0.5697      Z       3.0387
       Tot       3.2886
    Quadrupole Moments (Debye-Ang)
        XX     -89.8526     XY       4.9712     YY     -72.1770
        XZ       0.5545     YZ      -1.4400     ZZ     -80.0654

 Total job time:  47.26s(wall), 1697.83s(cpu)
        *  Thank you very much for using Q-Chem.  Have a nice day.  *
