 Q-Chem 5.4, Q-Chem, Inc., Pleasanton, CA (2021)
 Q-Chem 5.4.0 for Intel X86 EM64T Linux

User input:
--------------------------------------------------------------
$molecule
0 1
C	-0.626855	-3.887800	-0.363176
C	0.573074	-3.701456	0.329669
C	0.940016	-2.345170	0.542250
H	1.184837	-4.545233	0.682412
C	-0.000000	-1.450135	-0.000000
S	-1.322686	-2.321334	-0.764076
C	2.192440	-1.934439	1.265537
H	2.768365	-2.819799	1.597559
H	1.967653	-1.326210	2.166534
H	2.860032	-1.325374	0.620843
H	-1.131925	-4.815326	-0.655262
C	0.000000	0.000000	0.000000
C	0.540541	0.648986	1.113020
C	1.431046	1.717546	0.820578
H	0.292104	0.350827	2.142881
C	1.590053	1.908061	-0.563588
S	0.621066	0.745901	-1.464748
C	2.112618	2.535384	1.882380
H	1.825779	2.191315	2.894974
H	1.847090	3.610676	1.808137
H	3.218159	2.467925	1.808230
H	2.203332	2.644073	-1.097114
$end

$rem
JOBTYPE		SP
EXCHANGE	HF
CORRELATION	pRIMP2
BASIS		cc-pvtz
METHOD		rimp2
AUX_BASIS	rimp2-cc-pvtz
SOLVENT_METHOD	PCM
PURECART	11111
SYMMETRY	false
MEM_TOTAL	110000
SCF_CONVERGENCE = 6
THRESH=10
GUI = 2
$end

$solvent
dielectric 4.90
$end
--------------------------------------------------------------

             Standard Nuclear Orientation (Angstroms)
    I     Atom           X                Y                Z
 ----------------------------------------------------------------
    1      C      -0.6268550000    -3.8878000000    -0.3631760000
    2      C       0.5730740000    -3.7014560000     0.3296690000
    3      C       0.9400160000    -2.3451700000     0.5422500000
    4      H       1.1848370000    -4.5452330000     0.6824120000
    5      C       0.0000000000    -1.4501350000     0.0000000000
    6      S      -1.3226860000    -2.3213340000    -0.7640760000
    7      C       2.1924400000    -1.9344390000     1.2655370000
    8      H       2.7683650000    -2.8197990000     1.5975590000
    9      H       1.9676530000    -1.3262100000     2.1665340000
   10      H       2.8600320000    -1.3253740000     0.6208430000
   11      H      -1.1319250000    -4.8153260000    -0.6552620000
   12      C       0.0000000000     0.0000000000     0.0000000000
   13      C       0.5405410000     0.6489860000     1.1130200000
   14      C       1.4310460000     1.7175460000     0.8205780000
   15      H       0.2921040000     0.3508270000     2.1428810000
   16      C       1.5900530000     1.9080610000    -0.5635880000
   17      S       0.6210660000     0.7459010000    -1.4647480000
   18      C       2.1126180000     2.5353840000     1.8823800000
   19      H       1.8257790000     2.1913150000     2.8949740000
   20      H       1.8470900000     3.6106760000     1.8081370000
   21      H       3.2181590000     2.4679250000     1.8082300000
   22      H       2.2033320000     2.6440730000    -1.0971140000
 ----------------------------------------------------------------

   10   -1179.6562030490      7.32e-07  Convergence criterion met
 Total energy in the final basis set =    -1179.6562030490
        RIMP2         total energy =     -1181.6435753210 a.u.

                    Orbital Energies (a.u.)
 --------------------------------------------------------------

 Alpha MOs
 -- Occupied --
-91.9837 -91.9793 -11.2761 -11.2738 -11.2684 -11.2666 -11.2524 -11.2505
-11.2487 -11.2404 -11.2306 -11.2273  -8.9836  -8.9792  -6.6645  -6.6638
 -6.6633  -6.6601  -6.6595  -6.6590  -1.1819  -1.1480  -1.0416  -1.0214
 -0.9966  -0.9535  -0.9130  -0.8918  -0.7966  -0.7512  -0.7346  -0.6971
 -0.6580  -0.6174  -0.5863  -0.5807  -0.5710  -0.5650  -0.5497  -0.5349
 -0.5266  -0.5228  -0.5098  -0.4901  -0.4750  -0.4645  -0.4573  -0.3442
 -0.3412  -0.3344  -0.2872

          Ground-State Mulliken Net Atomic Charges

     Atom                 Charge (a.u.)
  ----------------------------------------
      1 C                    -0.213315
      2 C                    -0.256883
      3 C                     0.057839
      4 H                     0.184530
      5 C                    -0.019592
      6 S                     0.010193
      7 C                    -0.295516
      8 H                     0.114244
      9 H                     0.108944
     10 H                     0.116380
     11 H                     0.202620
     12 C                    -0.073243
     13 C                    -0.235136
     14 C                     0.039453
     15 H                     0.193042
     16 C                    -0.218613
     17 S                     0.033055
     18 C                    -0.269972
     19 H                     0.102985
     20 H                     0.111077
     21 H                     0.107173
     22 H                     0.200735
  ----------------------------------------
  Sum of atomic charges =     0.000000

                    Cartesian Multipole Moments
 -----------------------------------------------------------------
    Charge (ESU x 10^10)
                -0.0000
    Dipole Moment (Debye)
         X       2.9673      Y       0.6115      Z       2.3964
       Tot       3.8629
    Quadrupole Moments (Debye-Ang)
        XX     -83.2291     XY       3.7518     YY     -74.2972
        XZ       3.3446     YZ      -0.3817     ZZ     -84.8923

 Total job time:  56.87s(wall), 1927.40s(cpu)
        *  Thank you very much for using Q-Chem.  Have a nice day.  *
