 Q-Chem 5.4, Q-Chem, Inc., Pleasanton, CA (2021)
 Q-Chem 5.4.0 for Intel X86 EM64T Linux

User input:
--------------------------------------------------------------
$molecule
0 1
C	0.627947	-3.887800	-0.361285
C	-0.572038	-3.701456	0.331462
C	-0.939610	-2.345170	0.542953
H	-1.183405	-4.545233	0.684893
C	0.000000	-1.450135	0.000000
S	1.323052	-2.321334	-0.763441
C	-2.192207	-1.934439	1.265941
H	-2.767709	-2.819799	1.598695
H	-2.860100	-1.326210	0.620770
H	-1.967682	-1.325374	2.166438
H	1.133436	-4.815326	-0.652645
C	0.000000	0.000000	0.000000
C	0.143630	0.832309	1.113020
C	0.380550	2.202961	0.820578
H	0.077556	0.449877	2.142881
C	0.422995	2.447456	-0.563588
S	0.164909	0.956502	-1.464748
C	0.561888	3.252016	1.882380
H	0.485513	2.810624	2.894974
H	-0.205711	4.050482	1.808137
H	1.553045	3.746365	1.808230
H	0.586105	3.391501	-1.097114
$end

$rem
JOBTYPE		SP
EXCHANGE	HF
CORRELATION	pRIMP2
BASIS		cc-pvtz
METHOD		rimp2
AUX_BASIS	rimp2-cc-pvtz
SOLVENT_METHOD	PCM
PURECART	11111
SYMMETRY	false
MEM_TOTAL	110000
SCF_CONVERGENCE = 6
THRESH=10
GUI = 2
$end

$solvent
dielectric 4.90
$end
--------------------------------------------------------------

             Standard Nuclear Orientation (Angstroms)
    I     Atom           X                Y                Z
 ----------------------------------------------------------------
    1      C       0.6279470000    -3.8878000000    -0.3612850000
    2      C      -0.5720380000    -3.7014560000     0.3314620000
    3      C      -0.9396100000    -2.3451700000     0.5429530000
    4      H      -1.1834050000    -4.5452330000     0.6848930000
    5      C       0.0000000000    -1.4501350000     0.0000000000
    6      S       1.3230520000    -2.3213340000    -0.7634410000
    7      C      -2.1922070000    -1.9344390000     1.2659410000
    8      H      -2.7677090000    -2.8197990000     1.5986950000
    9      H      -2.8601000000    -1.3262100000     0.6207700000
   10      H      -1.9676820000    -1.3253740000     2.1664380000
   11      H       1.1334360000    -4.8153260000    -0.6526450000
   12      C       0.0000000000     0.0000000000     0.0000000000
   13      C       0.1436300000     0.8323090000     1.1130200000
   14      C       0.3805500000     2.2029610000     0.8205780000
   15      H       0.0775560000     0.4498770000     2.1428810000
   16      C       0.4229950000     2.4474560000    -0.5635880000
   17      S       0.1649090000     0.9565020000    -1.4647480000
   18      C       0.5618880000     3.2520160000     1.8823800000
   19      H       0.4855130000     2.8106240000     2.8949740000
   20      H      -0.2057110000     4.0504820000     1.8081370000
   21      H       1.5530450000     3.7463650000     1.8082300000
   22      H       0.5861050000     3.3915010000    -1.0971140000
 ----------------------------------------------------------------

   10   -1179.6847821244      5.11e-07  Convergence criterion met
 Total energy in the final basis set =    -1179.6847821244
        RIMP2         total energy =     -1181.6629656688 a.u.

                    Orbital Energies (a.u.)
 --------------------------------------------------------------

 Alpha MOs
 -- Occupied --
-91.9862 -91.9856 -11.2800 -11.2750 -11.2722 -11.2652 -11.2525 -11.2515
-11.2424 -11.2417 -11.2293 -11.2292  -8.9856  -8.9851  -6.6665  -6.6660
 -6.6660  -6.6655  -6.6654  -6.6648  -1.1787  -1.1498  -1.0398  -1.0236
 -0.9962  -0.9550  -0.9126  -0.8931  -0.8008  -0.7523  -0.7308  -0.6958
 -0.6618  -0.6161  -0.5842  -0.5798  -0.5698  -0.5668  -0.5517  -0.5330
 -0.5296  -0.5201  -0.5069  -0.4917  -0.4880  -0.4687  -0.4602  -0.3503
 -0.3399  -0.3340  -0.2887

          Ground-State Mulliken Net Atomic Charges

     Atom                 Charge (a.u.)
  ----------------------------------------
      1 C                    -0.211126
      2 C                    -0.250387
      3 C                     0.045648
      4 H                     0.185105
      5 C                    -0.046672
      6 S                     0.022702
      7 C                    -0.283727
      8 H                     0.108438
      9 H                     0.111696
     10 H                     0.107975
     11 H                     0.204401
     12 C                    -0.006065
     13 C                    -0.222959
     14 C                     0.015576
     15 H                     0.189700
     16 C                    -0.235905
     17 S                     0.019977
     18 C                    -0.271835
     19 H                     0.102452
     20 H                     0.107979
     21 H                     0.108589
     22 H                     0.198436
  ----------------------------------------
  Sum of atomic charges =     0.000000

                    Cartesian Multipole Moments
 -----------------------------------------------------------------
    Charge (ESU x 10^10)
                -0.0000
    Dipole Moment (Debye)
         X      -0.9712      Y       0.2883      Z       2.2370
       Tot       2.4557
    Quadrupole Moments (Debye-Ang)
        XX     -87.5103     XY       3.7292     YY     -69.1315
        XZ      -2.6363     YZ      -0.0196     ZZ     -85.0669

 Total job time:  54.09s(wall), 1843.24s(cpu)
        *  Thank you very much for using Q-Chem.  Have a nice day.  *
