 Q-Chem 5.4, Q-Chem, Inc., Pleasanton, CA (2021)
 Q-Chem 5.4.0 for Intel X86 EM64T Linux

User input:
--------------------------------------------------------------
$molecule
0 1
C	0.124726	-3.887800	0.713644
C	-0.115824	-3.701456	-0.650907
C	-0.188844	-2.345170	-1.068646
H	-0.238841	-4.545233	-1.346284
C	0.000000	-1.450135	0.000000
S	0.264890	-2.321334	1.504375
C	-0.439816	-1.934439	-2.492978
H	-0.555669	-2.819799	-3.147582
H	0.394879	-1.326210	-2.899931
H	-1.362799	-1.325374	-2.589982
H	0.225628	-4.815326	1.288299
C	0.000000	0.000000	0.000000
C	0.729909	0.424971	1.113020
C	1.932179	1.124518	0.820578
H	0.394478	0.229765	2.142881
C	2.146756	1.249161	-0.563588
S	0.838724	0.488500	-1.464748
C	2.852364	1.659924	1.882380
H	2.465145	1.434710	2.894974
H	2.970621	2.761183	1.808137
H	3.868160	1.218416	1.808230
H	2.974781	1.731032	-1.097114
$end

$rem
JOBTYPE		SP
EXCHANGE	HF
CORRELATION	pRIMP2
BASIS		cc-pvtz
METHOD		rimp2
AUX_BASIS	rimp2-cc-pvtz
SOLVENT_METHOD	PCM
PURECART	11111
SYMMETRY	false
MEM_TOTAL	110000
SCF_CONVERGENCE = 6
THRESH=10
GUI = 2
$end

$solvent
dielectric 4.90
$end
--------------------------------------------------------------

             Standard Nuclear Orientation (Angstroms)
    I     Atom           X                Y                Z
 ----------------------------------------------------------------
    1      C       0.1247260000    -3.8878000000     0.7136440000
    2      C      -0.1158240000    -3.7014560000    -0.6509070000
    3      C      -0.1888440000    -2.3451700000    -1.0686460000
    4      H      -0.2388410000    -4.5452330000    -1.3462840000
    5      C       0.0000000000    -1.4501350000     0.0000000000
    6      S       0.2648900000    -2.3213340000     1.5043750000
    7      C      -0.4398160000    -1.9344390000    -2.4929780000
    8      H      -0.5556690000    -2.8197990000    -3.1475820000
    9      H       0.3948790000    -1.3262100000    -2.8999310000
   10      H      -1.3627990000    -1.3253740000    -2.5899820000
   11      H       0.2256280000    -4.8153260000     1.2882990000
   12      C       0.0000000000     0.0000000000     0.0000000000
   13      C       0.7299090000     0.4249710000     1.1130200000
   14      C       1.9321790000     1.1245180000     0.8205780000
   15      H       0.3944780000     0.2297650000     2.1428810000
   16      C       2.1467560000     1.2491610000    -0.5635880000
   17      S       0.8387240000     0.4885000000    -1.4647480000
   18      C       2.8523640000     1.6599240000     1.8823800000
   19      H       2.4651450000     1.4347100000     2.8949740000
   20      H       2.9706210000     2.7611830000     1.8081370000
   21      H       3.8681600000     1.2184160000     1.8082300000
   22      H       2.9747810000     1.7310320000    -1.0971140000
 ----------------------------------------------------------------

   11   -1179.6072893787      6.70e-07  Convergence criterion met
 Total energy in the final basis set =    -1179.6072893787
        RIMP2         total energy =     -1181.6053887542 a.u.

                    Orbital Energies (a.u.)
 --------------------------------------------------------------

 Alpha MOs
 -- Occupied --
-91.9841 -91.9759 -11.2920 -11.2800 -11.2664 -11.2581 -11.2564 -11.2557
-11.2377 -11.2322 -11.2320 -11.2219  -8.9851  -8.9763  -6.6657  -6.6649
 -6.6645  -6.6573  -6.6566  -6.6560  -1.1941  -1.1450  -1.0477  -1.0232
 -1.0005  -0.9479  -0.9134  -0.8938  -0.7956  -0.7686  -0.7254  -0.6907
 -0.6552  -0.6220  -0.5913  -0.5843  -0.5761  -0.5700  -0.5501  -0.5346
 -0.5285  -0.5156  -0.5100  -0.4957  -0.4689  -0.4609  -0.4439  -0.3662
 -0.3470  -0.3332  -0.2620

          Ground-State Mulliken Net Atomic Charges

     Atom                 Charge (a.u.)
  ----------------------------------------
      1 C                    -0.253181
      2 C                    -0.242139
      3 C                     0.012782
      4 H                     0.182515
      5 C                     0.000358
      6 S                    -0.019023
      7 C                    -0.310281
      8 H                     0.107559
      9 H                     0.111450
     10 H                     0.112475
     11 H                     0.199774
     12 C                    -0.107415
     13 C                    -0.125264
     14 C                    -0.005366
     15 H                     0.192562
     16 C                    -0.176693
     17 S                     0.059941
     18 C                    -0.264516
     19 H                     0.104276
     20 H                     0.108642
     21 H                     0.107353
     22 H                     0.204191
  ----------------------------------------
  Sum of atomic charges =     0.000000

                    Cartesian Multipole Moments
 -----------------------------------------------------------------
    Charge (ESU x 10^10)
                -0.0000
    Dipole Moment (Debye)
         X       2.7579      Y       1.3580      Z       0.0802
       Tot       3.0752
    Quadrupole Moments (Debye-Ang)
        XX     -82.5511     XY       6.1703     YY     -81.6236
        XZ       1.3478     YZ       3.2017     ZZ     -79.8660

 Total job time:  55.25s(wall), 1947.41s(cpu)
        *  Thank you very much for using Q-Chem.  Have a nice day.  *
