 Q-Chem 5.4, Q-Chem, Inc., Pleasanton, CA (2021)
 Q-Chem 5.4.0 for Intel X86 EM64T Linux

User input:
--------------------------------------------------------------
$molecule
0 1
C	0.626855	-3.887800	0.363176
C	-0.573074	-3.701456	-0.329669
C	-0.940016	-2.345170	-0.542250
H	-1.184837	-4.545233	-0.682412
C	0.000000	-1.450135	0.000000
S	1.322686	-2.321334	0.764076
C	-2.192440	-1.934439	-1.265537
H	-2.768365	-2.819799	-1.597559
H	-1.967653	-1.326210	-2.166534
H	-2.860032	-1.325374	-0.620843
H	1.131925	-4.815326	0.655262
C	0.000000	0.000000	0.000000
C	0.645024	0.545262	1.113020
C	1.707554	1.442954	0.820578
H	0.348587	0.294774	2.142881
C	1.897227	1.602964	-0.563588
S	0.741155	0.626722	-1.464748
C	2.520787	2.130014	1.882380
H	2.178559	1.840981	2.894974
H	2.446016	3.235078	1.808137
H	3.597818	1.871604	1.808230
H	2.628997	2.221299	-1.097114
$end

$rem
JOBTYPE		SP
EXCHANGE	HF
CORRELATION	pRIMP2
BASIS		cc-pvtz
METHOD		rimp2
AUX_BASIS	rimp2-cc-pvtz
SOLVENT_METHOD	PCM
PURECART	11111
SYMMETRY	false
MEM_TOTAL	110000
SCF_CONVERGENCE = 6
THRESH=10
GUI = 2
$end

$solvent
dielectric 4.90
$end
--------------------------------------------------------------

             Standard Nuclear Orientation (Angstroms)
    I     Atom           X                Y                Z
 ----------------------------------------------------------------
    1      C       0.6268550000    -3.8878000000     0.3631760000
    2      C      -0.5730740000    -3.7014560000    -0.3296690000
    3      C      -0.9400160000    -2.3451700000    -0.5422500000
    4      H      -1.1848370000    -4.5452330000    -0.6824120000
    5      C       0.0000000000    -1.4501350000     0.0000000000
    6      S       1.3226860000    -2.3213340000     0.7640760000
    7      C      -2.1924400000    -1.9344390000    -1.2655370000
    8      H      -2.7683650000    -2.8197990000    -1.5975590000
    9      H      -1.9676530000    -1.3262100000    -2.1665340000
   10      H      -2.8600320000    -1.3253740000    -0.6208430000
   11      H       1.1319250000    -4.8153260000     0.6552620000
   12      C       0.0000000000     0.0000000000     0.0000000000
   13      C       0.6450240000     0.5452620000     1.1130200000
   14      C       1.7075540000     1.4429540000     0.8205780000
   15      H       0.3485870000     0.2947740000     2.1428810000
   16      C       1.8972270000     1.6029640000    -0.5635880000
   17      S       0.7411550000     0.6267220000    -1.4647480000
   18      C       2.5207870000     2.1300140000     1.8823800000
   19      H       2.1785590000     1.8409810000     2.8949740000
   20      H       2.4460160000     3.2350780000     1.8081370000
   21      H       3.5978180000     1.8716040000     1.8082300000
   22      H       2.6289970000     2.2212990000    -1.0971140000
 ----------------------------------------------------------------

   10   -1179.6413186049      6.27e-07  Convergence criterion met
 Total energy in the final basis set =    -1179.6413186049
        RIMP2         total energy =     -1181.6305130770 a.u.

                    Orbital Energies (a.u.)
 --------------------------------------------------------------

 Alpha MOs
 -- Occupied --
-91.9839 -91.9805 -11.2830 -11.2716 -11.2652 -11.2606 -11.2558 -11.2537
-11.2413 -11.2382 -11.2307 -11.2262  -8.9841  -8.9802  -6.6649  -6.6642
 -6.6637  -6.6611  -6.6605  -6.6599  -1.1857  -1.1468  -1.0432  -1.0190
 -1.0003  -0.9493  -0.9138  -0.8908  -0.7964  -0.7574  -0.7312  -0.6890
 -0.6578  -0.6201  -0.5849  -0.5803  -0.5709  -0.5690  -0.5490  -0.5341
 -0.5284  -0.5157  -0.5078  -0.4924  -0.4686  -0.4664  -0.4598  -0.3500
 -0.3384  -0.3319  -0.2843

          Ground-State Mulliken Net Atomic Charges

     Atom                 Charge (a.u.)
  ----------------------------------------
      1 C                    -0.229070
      2 C                    -0.244769
      3 C                     0.031210
      4 H                     0.182447
      5 C                    -0.022078
      6 S                     0.016379
      7 C                    -0.289127
      8 H                     0.107524
      9 H                     0.107009
     10 H                     0.109552
     11 H                     0.202027
     12 C                    -0.067878
     13 C                    -0.236027
     14 C                     0.033668
     15 H                     0.195419
     16 C                    -0.194930
     17 S                     0.042307
     18 C                    -0.265584
     19 H                     0.103765
     20 H                     0.108723
     21 H                     0.107712
     22 H                     0.201721
  ----------------------------------------
  Sum of atomic charges =     0.000000

                    Cartesian Multipole Moments
 -----------------------------------------------------------------
    Charge (ESU x 10^10)
                -0.0000
    Dipole Moment (Debye)
         X       0.9279      Y       0.7667      Z       0.8650
       Tot       1.4822
    Quadrupole Moments (Debye-Ang)
        XX     -80.8584     XY       8.1779     YY     -76.8821
        XZ       3.3348     YZ       1.8641     ZZ     -84.5911

 Total job time:  49.88s(wall), 1718.30s(cpu)
        *  Thank you very much for using Q-Chem.  Have a nice day.  *
