 Q-Chem 5.4, Q-Chem, Inc., Pleasanton, CA (2021)
 Q-Chem 5.4.0 for Intel X86 EM64T Linux

User input:
--------------------------------------------------------------
$molecule
0 1
C	0.674034	-3.828925	0.724460
C	0.641731	-3.645403	-0.661131
C	0.406834	-2.309612	-1.085203
H	0.787861	-4.476429	-1.367305
C	0.251813	-1.428104	0.000000
S	0.402734	-2.286131	1.527517
C	0.335682	-1.905091	-2.531478
H	0.489007	-2.777074	-3.196254
H	1.109183	-1.151090	-2.787305
H	-0.648644	-1.460194	-2.787282
H	0.834685	-4.742433	1.307907
C	0.000000	0.000000	0.000000
C	0.285976	0.794723	1.113020
C	0.757308	2.103412	0.820578
H	0.154498	0.429575	2.142881
C	0.841565	2.336821	-0.563588
S	0.328498	0.913334	-1.464748
C	1.118059	3.105040	1.882380
H	0.966197	2.683616	2.894974
H	0.500773	4.024668	1.808137
H	2.180000	3.419766	1.808230
H	1.166129	3.238200	-1.097114
$end

$rem
JOBTYPE		SP
EXCHANGE	HF
CORRELATION	pRIMP2
BASIS		cc-pvtz
METHOD		rimp2
AUX_BASIS	rimp2-cc-pvtz
SOLVENT_METHOD	PCM
PURECART	11111
SYMMETRY	false
MEM_TOTAL	110000
SCF_CONVERGENCE = 6
THRESH=10
GUI = 2
$end

$solvent
dielectric 4.90
$end
--------------------------------------------------------------

             Standard Nuclear Orientation (Angstroms)
    I     Atom           X                Y                Z
 ----------------------------------------------------------------
    1      C       0.6740340000    -3.8289250000     0.7244600000
    2      C       0.6417310000    -3.6454030000    -0.6611310000
    3      C       0.4068340000    -2.3096120000    -1.0852030000
    4      H       0.7878610000    -4.4764290000    -1.3673050000
    5      C       0.2518130000    -1.4281040000     0.0000000000
    6      S       0.4027340000    -2.2861310000     1.5275170000
    7      C       0.3356820000    -1.9050910000    -2.5314780000
    8      H       0.4890070000    -2.7770740000    -3.1962540000
    9      H       1.1091830000    -1.1510900000    -2.7873050000
   10      H      -0.6486440000    -1.4601940000    -2.7872820000
   11      H       0.8346850000    -4.7424330000     1.3079070000
   12      C       0.0000000000     0.0000000000     0.0000000000
   13      C       0.2859760000     0.7947230000     1.1130200000
   14      C       0.7573080000     2.1034120000     0.8205780000
   15      H       0.1544980000     0.4295750000     2.1428810000
   16      C       0.8415650000     2.3368210000    -0.5635880000
   17      S       0.3284980000     0.9133340000    -1.4647480000
   18      C       1.1180590000     3.1050400000     1.8823800000
   19      H       0.9661970000     2.6836160000     2.8949740000
   20      H       0.5007730000     4.0246680000     1.8081370000
   21      H       2.1800000000     3.4197660000     1.8082300000
   22      H       1.1661290000     3.2382000000    -1.0971140000
 ----------------------------------------------------------------

   10   -1179.6666932834      5.56e-07  Convergence criterion met
 Total energy in the final basis set =    -1179.6666932834
        RIMP2         total energy =     -1181.6523670863 a.u.

                    Orbital Energies (a.u.)
 --------------------------------------------------------------

 Alpha MOs
 -- Occupied --
-91.9846 -91.9827 -11.2795 -11.2787 -11.2691 -11.2681 -11.2530 -11.2485
-11.2446 -11.2422 -11.2295 -11.2278  -8.9846  -8.9827  -6.6655  -6.6649
 -6.6643  -6.6637  -6.6631  -6.6625  -1.1827  -1.1492  -1.0426  -1.0243
 -0.9986  -0.9517  -0.9136  -0.8956  -0.7976  -0.7653  -0.7204  -0.6951
 -0.6609  -0.6166  -0.5839  -0.5827  -0.5781  -0.5698  -0.5520  -0.5333
 -0.5228  -0.5210  -0.5117  -0.4969  -0.4843  -0.4661  -0.4487  -0.3702
 -0.3425  -0.3399  -0.2666

          Ground-State Mulliken Net Atomic Charges

     Atom                 Charge (a.u.)
  ----------------------------------------
      1 C                    -0.217769
      2 C                    -0.251615
      3 C                     0.051826
      4 H                     0.185025
      5 C                    -0.032115
      6 S                    -0.000037
      7 C                    -0.319119
      8 H                     0.115151
      9 H                     0.115385
     10 H                     0.115628
     11 H                     0.205319
     12 C                     0.033041
     13 C                    -0.253459
     14 C                     0.037892
     15 H                     0.177723
     16 C                    -0.248473
     17 S                     0.033804
     18 C                    -0.267833
     19 H                     0.103053
     20 H                     0.108598
     21 H                     0.108293
     22 H                     0.199683
  ----------------------------------------
  Sum of atomic charges =     0.000000

                    Cartesian Multipole Moments
 -----------------------------------------------------------------
    Charge (ESU x 10^10)
                -0.0000
    Dipole Moment (Debye)
         X       1.0051      Y       0.6242      Z      -0.1359
       Tot       1.1910
    Quadrupole Moments (Debye-Ang)
        XX     -91.0253     XY       1.5169     YY     -71.2500
        XZ      -0.1624     YZ       3.4295     ZZ     -79.8001

 Total job time:  50.89s(wall), 1767.26s(cpu)
        *  Thank you very much for using Q-Chem.  Have a nice day.  *
