 Q-Chem 5.4, Q-Chem, Inc., Pleasanton, CA (2021)
 Q-Chem 5.4.0 for Intel X86 EM64T Linux

User input:
--------------------------------------------------------------
$molecule
0 1
C	0.466510	-3.887800	-0.554267
C	-0.424173	-3.701456	0.507121
C	-0.697244	-2.345170	0.831575
H	-0.877789	-4.545233	1.048337
C	0.000000	-1.450135	0.000000
S	0.982150	-2.321334	-1.169911
C	-1.627024	-1.934439	1.939374
H	-2.054010	-2.819799	2.448894
H	-2.475299	-1.326210	1.561545
H	-1.108051	-1.325374	2.708773
H	0.841863	-4.815326	-1.000944
C	0.000000	0.000000	0.000000
C	0.645024	0.545262	1.113020
C	1.707554	1.442954	0.820578
H	0.348587	0.294774	2.142881
C	1.897227	1.602964	-0.563588
S	0.741155	0.626722	-1.464748
C	2.520787	2.130014	1.882380
H	2.178559	1.840981	2.894974
H	2.446016	3.235078	1.808137
H	3.597818	1.871604	1.808230
H	2.628997	2.221299	-1.097114
$end

$rem
JOBTYPE		SP
EXCHANGE	HF
CORRELATION	pRIMP2
BASIS		cc-pvtz
METHOD		rimp2
AUX_BASIS	rimp2-cc-pvtz
SOLVENT_METHOD	PCM
PURECART	11111
SYMMETRY	false
MEM_TOTAL	110000
SCF_CONVERGENCE = 6
THRESH=10
GUI = 2
$end

$solvent
dielectric 4.90
$end
--------------------------------------------------------------

             Standard Nuclear Orientation (Angstroms)
    I     Atom           X                Y                Z
 ----------------------------------------------------------------
    1      C       0.4665100000    -3.8878000000    -0.5542670000
    2      C      -0.4241730000    -3.7014560000     0.5071210000
    3      C      -0.6972440000    -2.3451700000     0.8315750000
    4      H      -0.8777890000    -4.5452330000     1.0483370000
    5      C       0.0000000000    -1.4501350000     0.0000000000
    6      S       0.9821500000    -2.3213340000    -1.1699110000
    7      C      -1.6270240000    -1.9344390000     1.9393740000
    8      H      -2.0540100000    -2.8197990000     2.4488940000
    9      H      -2.4752990000    -1.3262100000     1.5615450000
   10      H      -1.1080510000    -1.3253740000     2.7087730000
   11      H       0.8418630000    -4.8153260000    -1.0009440000
   12      C       0.0000000000     0.0000000000     0.0000000000
   13      C       0.6450240000     0.5452620000     1.1130200000
   14      C       1.7075540000     1.4429540000     0.8205780000
   15      H       0.3485870000     0.2947740000     2.1428810000
   16      C       1.8972270000     1.6029640000    -0.5635880000
   17      S       0.7411550000     0.6267220000    -1.4647480000
   18      C       2.5207870000     2.1300140000     1.8823800000
   19      H       2.1785590000     1.8409810000     2.8949740000
   20      H       2.4460160000     3.2350780000     1.8081370000
   21      H       3.5978180000     1.8716040000     1.8082300000
   22      H       2.6289970000     2.2212990000    -1.0971140000
 ----------------------------------------------------------------

   10   -1179.6368508060      8.87e-07  Convergence criterion met
 Total energy in the final basis set =    -1179.6368508060
        RIMP2         total energy =     -1181.6274200516 a.u.

                    Orbital Energies (a.u.)
 --------------------------------------------------------------

 Alpha MOs
 -- Occupied --
-91.9861 -91.9796 -11.2849 -11.2779 -11.2661 -11.2611 -11.2566 -11.2558
-11.2378 -11.2348 -11.2318 -11.2260  -8.9865  -8.9793  -6.6673  -6.6666
 -6.6662  -6.6602  -6.6595  -6.6589  -1.1884  -1.1461  -1.0457  -1.0200
 -0.9976  -0.9552  -0.9097  -0.8927  -0.8003  -0.7518  -0.7338  -0.6961
 -0.6552  -0.6187  -0.5914  -0.5805  -0.5693  -0.5634  -0.5495  -0.5385
 -0.5328  -0.5171  -0.5070  -0.4889  -0.4812  -0.4637  -0.4518  -0.3652
 -0.3388  -0.3348  -0.2698

          Ground-State Mulliken Net Atomic Charges

     Atom                 Charge (a.u.)
  ----------------------------------------
      1 C                    -0.255306
      2 C                    -0.240158
      3 C                     0.001596
      4 H                     0.181423
      5 C                     0.005295
      6 S                     0.017690
      7 C                    -0.295778
      8 H                     0.108306
      9 H                     0.108251
     10 H                     0.099785
     11 H                     0.199984
     12 C                    -0.078466
     13 C                    -0.126100
     14 C                    -0.011207
     15 H                     0.197911
     16 C                    -0.184081
     17 S                     0.016318
     18 C                    -0.267544
     19 H                     0.102526
     20 H                     0.108483
     21 H                     0.107631
     22 H                     0.203440
  ----------------------------------------
  Sum of atomic charges =     0.000000

                    Cartesian Multipole Moments
 -----------------------------------------------------------------
    Charge (ESU x 10^10)
                -0.0000
    Dipole Moment (Debye)
         X       1.4634      Y       1.4235      Z       2.6448
       Tot       3.3411
    Quadrupole Moments (Debye-Ang)
        XX     -82.8253     XY       7.7781     YY     -78.9284
        XZ      -2.2048     YZ      -1.1395     ZZ     -82.4469

 Total job time:  49.49s(wall), 1714.75s(cpu)
        *  Thank you very much for using Q-Chem.  Have a nice day.  *
