 Q-Chem 5.4, Q-Chem, Inc., Pleasanton, CA (2021)
 Q-Chem 5.4.0 for Intel X86 EM64T Linux

User input:
--------------------------------------------------------------
$molecule
0 1
C	0.724460	-3.887800	0.001092
C	-0.661131	-3.701456	0.001036
C	-1.085203	-2.345170	0.000406
H	-1.367305	-4.545233	0.001433
C	-0.000000	-1.450135	-0.000000
S	1.527517	-2.321334	0.000367
C	-2.531478	-1.934439	0.000233
H	-3.196254	-2.819799	0.000656
H	-2.787305	-1.326210	-0.892447
H	-2.787282	-1.325374	0.892350
H	1.307907	-4.815326	0.001511
C	0.000000	0.000000	0.000000
C	0.215623	0.816623	1.113020
C	0.571102	2.161411	0.820578
H	0.116470	0.441406	2.142881
C	0.634696	2.401276	-0.563588
S	0.247646	0.938489	-1.464748
C	0.843182	3.190669	1.882380
H	0.728628	2.757614	2.894974
H	0.148095	4.052998	1.808137
H	1.873652	3.596752	1.808230
H	0.879464	3.327513	-1.097114
$end

$rem
JOBTYPE		SP
EXCHANGE	HF
CORRELATION	pRIMP2
BASIS		cc-pvtz
METHOD		rimp2
AUX_BASIS	rimp2-cc-pvtz
SOLVENT_METHOD	PCM
PURECART	11111
SYMMETRY	false
MEM_TOTAL	110000
SCF_CONVERGENCE = 6
THRESH=10
GUI = 2
$end

$solvent
dielectric 4.90
$end
--------------------------------------------------------------

             Standard Nuclear Orientation (Angstroms)
    I     Atom           X                Y                Z
 ----------------------------------------------------------------
    1      C       0.7244600000    -3.8878000000     0.0010920000
    2      C      -0.6611310000    -3.7014560000     0.0010360000
    3      C      -1.0852030000    -2.3451700000     0.0004060000
    4      H      -1.3673050000    -4.5452330000     0.0014330000
    5      C       0.0000000000    -1.4501350000     0.0000000000
    6      S       1.5275170000    -2.3213340000     0.0003670000
    7      C      -2.5314780000    -1.9344390000     0.0002330000
    8      H      -3.1962540000    -2.8197990000     0.0006560000
    9      H      -2.7873050000    -1.3262100000    -0.8924470000
   10      H      -2.7872820000    -1.3253740000     0.8923500000
   11      H       1.3079070000    -4.8153260000     0.0015110000
   12      C       0.0000000000     0.0000000000     0.0000000000
   13      C       0.2156230000     0.8166230000     1.1130200000
   14      C       0.5711020000     2.1614110000     0.8205780000
   15      H       0.1164700000     0.4414060000     2.1428810000
   16      C       0.6346960000     2.4012760000    -0.5635880000
   17      S       0.2476460000     0.9384890000    -1.4647480000
   18      C       0.8431820000     3.1906690000     1.8823800000
   19      H       0.7286280000     2.7576140000     2.8949740000
   20      H       0.1480950000     4.0529980000     1.8081370000
   21      H       1.8736520000     3.5967520000     1.8082300000
   22      H       0.8794640000     3.3275130000    -1.0971140000
 ----------------------------------------------------------------

   10   -1179.6819312014      5.05e-07  Convergence criterion met
 Total energy in the final basis set =    -1179.6819312014
        RIMP2         total energy =     -1181.6600884849 a.u.

                    Orbital Energies (a.u.)
 --------------------------------------------------------------

 Alpha MOs
 -- Occupied --
-91.9852 -91.9849 -11.2772 -11.2726 -11.2726 -11.2663 -11.2526 -11.2509
-11.2428 -11.2415 -11.2291 -11.2290  -8.9847  -8.9844  -6.6655  -6.6653
 -6.6650  -6.6648  -6.6644  -6.6641  -1.1780  -1.1494  -1.0392  -1.0226
 -0.9967  -0.9536  -0.9130  -0.8923  -0.7996  -0.7531  -0.7302  -0.6940
 -0.6618  -0.6167  -0.5826  -0.5791  -0.5703  -0.5690  -0.5513  -0.5312
 -0.5291  -0.5191  -0.5072  -0.4922  -0.4867  -0.4642  -0.4633  -0.3479
 -0.3365  -0.3124  -0.3118

          Ground-State Mulliken Net Atomic Charges

     Atom                 Charge (a.u.)
  ----------------------------------------
      1 C                    -0.205723
      2 C                    -0.252458
      3 C                     0.056600
      4 H                     0.184430
      5 C                    -0.062397
      6 S                     0.026179
      7 C                    -0.283789
      8 H                     0.106624
      9 H                     0.110471
     10 H                     0.109630
     11 H                     0.204136
     12 C                    -0.005082
     13 C                    -0.232297
     14 C                     0.023978
     15 H                     0.184605
     16 C                    -0.236923
     17 S                     0.025564
     18 C                    -0.270643
     19 H                     0.102808
     20 H                     0.107779
     21 H                     0.108224
     22 H                     0.198286
  ----------------------------------------
  Sum of atomic charges =     0.000000

                    Cartesian Multipole Moments
 -----------------------------------------------------------------
    Charge (ESU x 10^10)
                -0.0000
    Dipole Moment (Debye)
         X      -0.9979      Y       0.2842      Z       1.4879
       Tot       1.8139
    Quadrupole Moments (Debye-Ang)
        XX     -85.4073     XY       4.9505     YY     -69.5301
        XZ       0.3161     YZ       1.0789     ZZ     -86.7031

 Total job time:  53.07s(wall), 1819.05s(cpu)
        *  Thank you very much for using Q-Chem.  Have a nice day.  *
