 Q-Chem 5.4, Q-Chem, Inc., Pleasanton, CA (2021)
 Q-Chem 5.4.0 for Intel X86 EM64T Linux

User input:
--------------------------------------------------------------
$molecule
0 1
C	-0.627947	-3.887800	0.361285
C	0.572038	-3.701456	-0.331462
C	0.939610	-2.345170	-0.542953
H	1.183405	-4.545233	-0.684893
C	0.000000	-1.450135	0.000000
S	-1.323052	-2.321334	0.763441
C	2.192207	-1.934439	-1.265941
H	2.767709	-2.819799	-1.598695
H	2.860100	-1.326210	-0.620770
H	1.967682	-1.325374	-2.166438
H	-1.133436	-4.815326	0.652645
C	0.000000	0.000000	0.000000
C	0.354153	0.766774	1.113020
C	0.937751	2.029404	0.820578
H	0.191350	0.414475	2.142881
C	1.042030	2.254581	-0.563588
S	0.406851	0.881228	-1.464748
C	1.384426	2.995779	1.882380
H	1.196413	2.589194	2.894974
H	0.849641	3.965707	1.808137
H	2.469756	3.216753	1.808230
H	1.443919	3.124243	-1.097114
$end

$rem
JOBTYPE		SP
EXCHANGE	HF
CORRELATION	pRIMP2
BASIS		cc-pvtz
METHOD		rimp2
AUX_BASIS	rimp2-cc-pvtz
SOLVENT_METHOD	PCM
PURECART	11111
SYMMETRY	false
MEM_TOTAL	110000
SCF_CONVERGENCE = 6
THRESH=10
GUI = 2
$end

$solvent
dielectric 4.90
$end
--------------------------------------------------------------

             Standard Nuclear Orientation (Angstroms)
    I     Atom           X                Y                Z
 ----------------------------------------------------------------
    1      C      -0.6279470000    -3.8878000000     0.3612850000
    2      C       0.5720380000    -3.7014560000    -0.3314620000
    3      C       0.9396100000    -2.3451700000    -0.5429530000
    4      H       1.1834050000    -4.5452330000    -0.6848930000
    5      C       0.0000000000    -1.4501350000     0.0000000000
    6      S      -1.3230520000    -2.3213340000     0.7634410000
    7      C       2.1922070000    -1.9344390000    -1.2659410000
    8      H       2.7677090000    -2.8197990000    -1.5986950000
    9      H       2.8601000000    -1.3262100000    -0.6207700000
   10      H       1.9676820000    -1.3253740000    -2.1664380000
   11      H      -1.1334360000    -4.8153260000     0.6526450000
   12      C       0.0000000000     0.0000000000     0.0000000000
   13      C       0.3541530000     0.7667740000     1.1130200000
   14      C       0.9377510000     2.0294040000     0.8205780000
   15      H       0.1913500000     0.4144750000     2.1428810000
   16      C       1.0420300000     2.2545810000    -0.5635880000
   17      S       0.4068510000     0.8812280000    -1.4647480000
   18      C       1.3844260000     2.9957790000     1.8823800000
   19      H       1.1964130000     2.5891940000     2.8949740000
   20      H       0.8496410000     3.9657070000     1.8081370000
   21      H       2.4697560000     3.2167530000     1.8082300000
   22      H       1.4439190000     3.1242430000    -1.0971140000
 ----------------------------------------------------------------

   10   -1179.6726145350      5.37e-07  Convergence criterion met
 Total energy in the final basis set =    -1179.6726145350
        RIMP2         total energy =     -1181.6552378510 a.u.

                    Orbital Energies (a.u.)
 --------------------------------------------------------------

 Alpha MOs
 -- Occupied --
-91.9848 -91.9832 -11.2764 -11.2754 -11.2693 -11.2693 -11.2518 -11.2497
-11.2459 -11.2415 -11.2296 -11.2260  -8.9845  -8.9829  -6.6653  -6.6648
 -6.6642  -6.6638  -6.6632  -6.6626  -1.1797  -1.1490  -1.0407  -1.0206
 -0.9979  -0.9535  -0.9124  -0.8927  -0.7977  -0.7575  -0.7274  -0.6950
 -0.6601  -0.6168  -0.5817  -0.5787  -0.5738  -0.5696  -0.5507  -0.5315
 -0.5275  -0.5194  -0.5108  -0.4933  -0.4808  -0.4653  -0.4576  -0.3506
 -0.3413  -0.3313  -0.2868

          Ground-State Mulliken Net Atomic Charges

     Atom                 Charge (a.u.)
  ----------------------------------------
      1 C                    -0.216469
      2 C                    -0.252842
      3 C                     0.054625
      4 H                     0.184869
      5 C                    -0.028183
      6 S                     0.019609
      7 C                    -0.290800
      8 H                     0.108506
      9 H                     0.114540
     10 H                     0.113865
     11 H                     0.203295
     12 C                    -0.046647
     13 C                    -0.213600
     14 C                     0.016082
     15 H                     0.187089
     16 C                    -0.225299
     17 S                     0.023257
     18 C                    -0.269430
     19 H                     0.103152
     20 H                     0.108155
     21 H                     0.107443
     22 H                     0.198782
  ----------------------------------------
  Sum of atomic charges =     0.000000

                    Cartesian Multipole Moments
 -----------------------------------------------------------------
    Charge (ESU x 10^10)
                -0.0000
    Dipole Moment (Debye)
         X       2.2357      Y       0.5573      Z       0.6990
       Tot       2.4078
    Quadrupole Moments (Debye-Ang)
        XX     -86.0458     XY       2.3919     YY     -71.6657
        XZ      -2.4165     YZ       2.1466     ZZ     -84.8357

 Total job time:  52.95s(wall), 1821.11s(cpu)
        *  Thank you very much for using Q-Chem.  Have a nice day.  *
