 Q-Chem 5.4, Q-Chem, Inc., Pleasanton, CA (2021)
 Q-Chem 5.4.0 for Intel X86 EM64T Linux

User input:
--------------------------------------------------------------
$molecule
0 1
C	0.555670	-3.887800	-0.464838
C	-0.505790	-3.701456	0.425760
C	-0.831053	-2.345170	0.697866
H	-1.046496	-4.545233	0.879984
C	0.000000	-1.450135	0.000000
S	1.170382	-2.321334	-0.981588
C	-1.939074	-1.934439	1.627381
H	-2.448051	-2.819799	2.055015
H	-2.708853	-1.326210	1.107991
H	-1.561590	-1.325374	2.475210
H	1.002886	-4.815326	-0.839549
C	0.000000	0.000000	0.000000
C	0.354153	0.766774	1.113020
C	0.937751	2.029404	0.820578
H	0.191350	0.414475	2.142881
C	1.042030	2.254581	-0.563588
S	0.406851	0.881228	-1.464748
C	1.384426	2.995779	1.882380
H	1.196413	2.589194	2.894974
H	0.849641	3.965707	1.808137
H	2.469756	3.216753	1.808230
H	1.443919	3.124243	-1.097114
$end

$rem
JOBTYPE		SP
EXCHANGE	HF
CORRELATION	pRIMP2
BASIS		cc-pvtz
METHOD		rimp2
AUX_BASIS	rimp2-cc-pvtz
SOLVENT_METHOD	PCM
PURECART	11111
SYMMETRY	false
MEM_TOTAL	110000
SCF_CONVERGENCE = 6
THRESH=10
GUI = 2
$end

$solvent
dielectric 4.90
$end
--------------------------------------------------------------

             Standard Nuclear Orientation (Angstroms)
    I     Atom           X                Y                Z
 ----------------------------------------------------------------
    1      C       0.5556700000    -3.8878000000    -0.4648380000
    2      C      -0.5057900000    -3.7014560000     0.4257600000
    3      C      -0.8310530000    -2.3451700000     0.6978660000
    4      H      -1.0464960000    -4.5452330000     0.8799840000
    5      C       0.0000000000    -1.4501350000     0.0000000000
    6      S       1.1703820000    -2.3213340000    -0.9815880000
    7      C      -1.9390740000    -1.9344390000     1.6273810000
    8      H      -2.4480510000    -2.8197990000     2.0550150000
    9      H      -2.7088530000    -1.3262100000     1.1079910000
   10      H      -1.5615900000    -1.3253740000     2.4752100000
   11      H       1.0028860000    -4.8153260000    -0.8395490000
   12      C       0.0000000000     0.0000000000     0.0000000000
   13      C       0.3541530000     0.7667740000     1.1130200000
   14      C       0.9377510000     2.0294040000     0.8205780000
   15      H       0.1913500000     0.4144750000     2.1428810000
   16      C       1.0420300000     2.2545810000    -0.5635880000
   17      S       0.4068510000     0.8812280000    -1.4647480000
   18      C       1.3844260000     2.9957790000     1.8823800000
   19      H       1.1964130000     2.5891940000     2.8949740000
   20      H       0.8496410000     3.9657070000     1.8081370000
   21      H       2.4697560000     3.2167530000     1.8082300000
   22      H       1.4439190000     3.1242430000    -1.0971140000
 ----------------------------------------------------------------

   10   -1179.6750627060      5.05e-07  Convergence criterion met
 Total energy in the final basis set =    -1179.6750627060
        RIMP2         total energy =     -1181.6561814945 a.u.

                    Orbital Energies (a.u.)
 --------------------------------------------------------------

 Alpha MOs
 -- Occupied --
-91.9865 -91.9846 -11.2780 -11.2761 -11.2690 -11.2686 -11.2527 -11.2481
-11.2455 -11.2415 -11.2298 -11.2287  -8.9861  -8.9842  -6.6670  -6.6664
 -6.6658  -6.6651  -6.6645  -6.6639  -1.1805  -1.1493  -1.0411  -1.0229
 -0.9962  -0.9554  -0.9118  -0.8934  -0.8008  -0.7517  -0.7317  -0.6961
 -0.6604  -0.6162  -0.5859  -0.5800  -0.5698  -0.5657  -0.5513  -0.5348
 -0.5301  -0.5195  -0.5075  -0.4912  -0.4831  -0.4716  -0.4577  -0.3567
 -0.3408  -0.3353  -0.2805

          Ground-State Mulliken Net Atomic Charges

     Atom                 Charge (a.u.)
  ----------------------------------------
      1 C                    -0.219642
      2 C                    -0.249578
      3 C                     0.036471
      4 H                     0.184027
      5 C                    -0.033113
      6 S                     0.023998
      7 C                    -0.288829
      8 H                     0.108454
      9 H                     0.110911
     10 H                     0.106228
     11 H                     0.203673
     12 C                    -0.020478
     13 C                    -0.200766
     14 C                     0.010238
     15 H                     0.192154
     16 C                    -0.222021
     17 S                     0.010962
     18 C                    -0.270924
     19 H                     0.102406
     20 H                     0.108250
     21 H                     0.108261
     22 H                     0.199318
  ----------------------------------------
  Sum of atomic charges =     0.000000

                    Cartesian Multipole Moments
 -----------------------------------------------------------------
    Charge (ESU x 10^10)
                -0.0000
    Dipole Moment (Debye)
         X      -0.2077      Y       0.5715      Z       2.4546
       Tot       2.5287
    Quadrupole Moments (Debye-Ang)
        XX     -86.9838     XY       5.9863     YY     -71.4114
        XZ      -2.6720     YZ      -0.4735     ZZ     -83.8778

 Total job time:  51.05s(wall), 1743.37s(cpu)
        *  Thank you very much for using Q-Chem.  Have a nice day.  *
