 Q-Chem 5.4, Q-Chem, Inc., Pleasanton, CA (2021)
 Q-Chem 5.4.0 for Intel X86 EM64T Linux

User input:
--------------------------------------------------------------
$molecule
0 1
C	0.555670	-3.887800	-0.464838
C	-0.505790	-3.701456	0.425760
C	-0.831053	-2.345170	0.697866
H	-1.046496	-4.545233	0.879984
C	-0.000000	-1.450135	-0.000000
S	1.170382	-2.321334	-0.981588
C	-1.939074	-1.934439	1.627381
H	-2.448051	-2.819799	2.055015
H	-2.708853	-1.326210	1.107991
H	-1.561590	-1.325374	2.475210
H	1.002886	-4.815326	-0.839549
C	0.000000	0.000000	0.000000
C	0.070542	0.841660	1.113020
C	0.187101	2.227746	0.820578
H	0.038051	0.454925	2.142881
C	0.208076	2.475009	-0.563588
S	0.080917	0.967235	-1.464748
C	0.276318	3.288613	1.882380
H	0.238704	2.842244	2.894974
H	-0.557951	4.017140	1.808137
H	1.220618	3.867466	1.808230
H	0.288286	3.429678	-1.097114
$end

$rem
JOBTYPE		SP
EXCHANGE	HF
CORRELATION	pRIMP2
BASIS		cc-pvtz
METHOD		rimp2
AUX_BASIS	rimp2-cc-pvtz
SOLVENT_METHOD	PCM
PURECART	11111
SYMMETRY	false
MEM_TOTAL	110000
SCF_CONVERGENCE = 6
THRESH=10
GUI = 2
$end

$solvent
dielectric 4.90
$end
--------------------------------------------------------------

             Standard Nuclear Orientation (Angstroms)
    I     Atom           X                Y                Z
 ----------------------------------------------------------------
    1      C       0.5556700000    -3.8878000000    -0.4648380000
    2      C      -0.5057900000    -3.7014560000     0.4257600000
    3      C      -0.8310530000    -2.3451700000     0.6978660000
    4      H      -1.0464960000    -4.5452330000     0.8799840000
    5      C       0.0000000000    -1.4501350000     0.0000000000
    6      S       1.1703820000    -2.3213340000    -0.9815880000
    7      C      -1.9390740000    -1.9344390000     1.6273810000
    8      H      -2.4480510000    -2.8197990000     2.0550150000
    9      H      -2.7088530000    -1.3262100000     1.1079910000
   10      H      -1.5615900000    -1.3253740000     2.4752100000
   11      H       1.0028860000    -4.8153260000    -0.8395490000
   12      C       0.0000000000     0.0000000000     0.0000000000
   13      C       0.0705420000     0.8416600000     1.1130200000
   14      C       0.1871010000     2.2277460000     0.8205780000
   15      H       0.0380510000     0.4549250000     2.1428810000
   16      C       0.2080760000     2.4750090000    -0.5635880000
   17      S       0.0809170000     0.9672350000    -1.4647480000
   18      C       0.2763180000     3.2886130000     1.8823800000
   19      H       0.2387040000     2.8422440000     2.8949740000
   20      H      -0.5579510000     4.0171400000     1.8081370000
   21      H       1.2206180000     3.8674660000     1.8082300000
   22      H       0.2882860000     3.4296780000    -1.0971140000
 ----------------------------------------------------------------

   10   -1179.6864395558      5.18e-07  Convergence criterion met
 Total energy in the final basis set =    -1179.6864395558
        RIMP2         total energy =     -1181.6647126951 a.u.

                    Orbital Energies (a.u.)
 --------------------------------------------------------------

 Alpha MOs
 -- Occupied --
-91.9864 -91.9859 -11.2815 -11.2762 -11.2725 -11.2645 -11.2531 -11.2518
-11.2431 -11.2409 -11.2295 -11.2294  -8.9859  -8.9855  -6.6668  -6.6664
 -6.6663  -6.6659  -6.6656  -6.6653  -1.1791  -1.1500  -1.0400  -1.0244
 -0.9961  -0.9554  -0.9129  -0.8935  -0.8013  -0.7532  -0.7301  -0.6969
 -0.6620  -0.6158  -0.5855  -0.5803  -0.5700  -0.5654  -0.5517  -0.5347
 -0.5295  -0.5208  -0.5063  -0.4917  -0.4889  -0.4703  -0.4588  -0.3530
 -0.3418  -0.3379  -0.2830

          Ground-State Mulliken Net Atomic Charges

     Atom                 Charge (a.u.)
  ----------------------------------------
      1 C                    -0.213171
      2 C                    -0.249833
      3 C                     0.042070
      4 H                     0.185487
      5 C                    -0.038969
      6 S                     0.019853
      7 C                    -0.285680
      8 H                     0.110160
      9 H                     0.112968
     10 H                     0.107283
     11 H                     0.204680
     12 C                     0.001369
     13 C                    -0.228610
     14 C                     0.015733
     15 H                     0.191892
     16 C                    -0.239190
     17 S                     0.018011
     18 C                    -0.272143
     19 H                     0.102312
     20 H                     0.108144
     21 H                     0.108835
     22 H                     0.198801
  ----------------------------------------
  Sum of atomic charges =     0.000000

                    Cartesian Multipole Moments
 -----------------------------------------------------------------
    Charge (ESU x 10^10)
                -0.0000
    Dipole Moment (Debye)
         X      -0.9953      Y       0.2373      Z       2.4452
       Tot       2.6507
    Quadrupole Moments (Debye-Ang)
        XX     -88.8252     XY       2.5736     YY     -68.7329
        XZ      -3.1443     YZ      -0.3086     ZZ     -84.0043

 Total job time:  53.23s(wall), 1838.69s(cpu)
        *  Thank you very much for using Q-Chem.  Have a nice day.  *
