 Q-Chem 5.4, Q-Chem, Inc., Pleasanton, CA (2021)
 Q-Chem 5.4.0 for Intel X86 EM64T Linux

User input:
--------------------------------------------------------------
$molecule
0 1
C	-0.464838	-3.887800	-0.555670
C	0.425760	-3.701456	0.505790
C	0.697866	-2.345170	0.831053
H	0.879984	-4.545233	1.046496
C	0.000000	-1.450135	0.000000
S	-0.981588	-2.321334	-1.170382
C	1.627381	-1.934439	1.939074
H	2.055015	-2.819799	2.448051
H	1.107991	-1.326210	2.708853
H	2.475210	-1.325374	1.561590
H	-0.839549	-4.815326	-1.002886
C	0.000000	0.000000	0.000000
C	0.729909	0.424971	1.113020
C	1.932179	1.124518	0.820578
H	0.394478	0.229765	2.142881
C	2.146756	1.249161	-0.563588
S	0.838724	0.488500	-1.464748
C	2.852364	1.659924	1.882380
H	2.465145	1.434710	2.894974
H	2.970621	2.761183	1.808137
H	3.868160	1.218416	1.808230
H	2.974781	1.731032	-1.097114
$end

$rem
JOBTYPE		SP
EXCHANGE	HF
CORRELATION	pRIMP2
BASIS		cc-pvtz
METHOD		rimp2
AUX_BASIS	rimp2-cc-pvtz
SOLVENT_METHOD	PCM
PURECART	11111
SYMMETRY	false
MEM_TOTAL	110000
SCF_CONVERGENCE = 6
THRESH=10
GUI = 2
$end

$solvent
dielectric 4.90
$end
--------------------------------------------------------------

             Standard Nuclear Orientation (Angstroms)
    I     Atom           X                Y                Z
 ----------------------------------------------------------------
    1      C      -0.4648380000    -3.8878000000    -0.5556700000
    2      C       0.4257600000    -3.7014560000     0.5057900000
    3      C       0.6978660000    -2.3451700000     0.8310530000
    4      H       0.8799840000    -4.5452330000     1.0464960000
    5      C       0.0000000000    -1.4501350000     0.0000000000
    6      S      -0.9815880000    -2.3213340000    -1.1703820000
    7      C       1.6273810000    -1.9344390000     1.9390740000
    8      H       2.0550150000    -2.8197990000     2.4480510000
    9      H       1.1079910000    -1.3262100000     2.7088530000
   10      H       2.4752100000    -1.3253740000     1.5615900000
   11      H      -0.8395490000    -4.8153260000    -1.0028860000
   12      C       0.0000000000     0.0000000000     0.0000000000
   13      C       0.7299090000     0.4249710000     1.1130200000
   14      C       1.9321790000     1.1245180000     0.8205780000
   15      H       0.3944780000     0.2297650000     2.1428810000
   16      C       2.1467560000     1.2491610000    -0.5635880000
   17      S       0.8387240000     0.4885000000    -1.4647480000
   18      C       2.8523640000     1.6599240000     1.8823800000
   19      H       2.4651450000     1.4347100000     2.8949740000
   20      H       2.9706210000     2.7611830000     1.8081370000
   21      H       3.8681600000     1.2184160000     1.8082300000
   22      H       2.9747810000     1.7310320000    -1.0971140000
 ----------------------------------------------------------------

   11   -1179.6067473493      5.07e-07  Convergence criterion met
 Total energy in the final basis set =    -1179.6067473493
        RIMP2         total energy =     -1181.6050609350 a.u.

                    Orbital Energies (a.u.)
 --------------------------------------------------------------

 Alpha MOs
 -- Occupied --
-91.9817 -91.9734 -11.2904 -11.2775 -11.2643 -11.2620 -11.2544 -11.2531
-11.2404 -11.2381 -11.2328 -11.2261  -8.9824  -8.9739  -6.6632  -6.6624
 -6.6620  -6.6548  -6.6542  -6.6536  -1.1924  -1.1455  -1.0467  -1.0257
 -0.9965  -0.9519  -0.9149  -0.8931  -0.7948  -0.7553  -0.7365  -0.7026
 -0.6529  -0.6204  -0.5983  -0.5872  -0.5674  -0.5599  -0.5483  -0.5410
 -0.5282  -0.5233  -0.5082  -0.4873  -0.4729  -0.4582  -0.4510  -0.3552
 -0.3411  -0.3363  -0.2720

          Ground-State Mulliken Net Atomic Charges

     Atom                 Charge (a.u.)
  ----------------------------------------
      1 C                    -0.220956
      2 C                    -0.264867
      3 C                     0.035300
      4 H                     0.182848
      5 C                     0.016881
      6 S                    -0.010004
      7 C                    -0.306508
      8 H                     0.114795
      9 H                     0.102536
     10 H                     0.115572
     11 H                     0.200906
     12 C                    -0.169397
     13 C                    -0.090096
     14 C                    -0.035307
     15 H                     0.193203
     16 C                    -0.168652
     17 S                     0.041923
     18 C                    -0.281057
     19 H                     0.107095
     20 H                     0.123019
     21 H                     0.109057
     22 H                     0.203707
  ----------------------------------------
  Sum of atomic charges =     0.000000

                    Cartesian Multipole Moments
 -----------------------------------------------------------------
    Charge (ESU x 10^10)
                -0.0000
    Dipole Moment (Debye)
         X       3.8939      Y       0.8995      Z       3.0130
       Tot       5.0050
    Quadrupole Moments (Debye-Ang)
        XX     -80.3646     XY       4.1663     YY     -80.1353
        XZ       3.5926     YZ      -1.2440     ZZ     -82.5196

 Total job time:  56.02s(wall), 1974.99s(cpu)
        *  Thank you very much for using Q-Chem.  Have a nice day.  *
