 Q-Chem 5.4, Q-Chem, Inc., Pleasanton, CA (2021)
 Q-Chem 5.4.0 for Intel X86 EM64T Linux

User input:
--------------------------------------------------------------
$molecule
0 1
C	-0.627947	-3.887800	0.361285
C	0.572038	-3.701456	-0.331462
C	0.939610	-2.345170	-0.542953
H	1.183405	-4.545233	-0.684893
C	0.000000	-1.450135	0.000000
S	-1.323052	-2.321334	0.763441
C	2.192207	-1.934439	-1.265941
H	2.767709	-2.819799	-1.598695
H	2.860100	-1.326210	-0.620770
H	1.967682	-1.325374	-2.166438
H	-1.133436	-4.815326	0.652645
C	0.000000	0.000000	0.000000
C	0.143630	0.832309	1.113020
C	0.380550	2.202961	0.820578
H	0.077556	0.449877	2.142881
C	0.422995	2.447456	-0.563588
S	0.164909	0.956502	-1.464748
C	0.561888	3.252016	1.882380
H	0.485513	2.810624	2.894974
H	-0.205711	4.050482	1.808137
H	1.553045	3.746365	1.808230
H	0.586105	3.391501	-1.097114
$end

$rem
JOBTYPE		SP
EXCHANGE	HF
CORRELATION	pRIMP2
BASIS		cc-pvtz
METHOD		rimp2
AUX_BASIS	rimp2-cc-pvtz
SOLVENT_METHOD	PCM
PURECART	11111
SYMMETRY	false
MEM_TOTAL	110000
SCF_CONVERGENCE = 6
THRESH=10
GUI = 2
$end

$solvent
dielectric 4.90
$end
--------------------------------------------------------------

             Standard Nuclear Orientation (Angstroms)
    I     Atom           X                Y                Z
 ----------------------------------------------------------------
    1      C      -0.6279470000    -3.8878000000     0.3612850000
    2      C       0.5720380000    -3.7014560000    -0.3314620000
    3      C       0.9396100000    -2.3451700000    -0.5429530000
    4      H       1.1834050000    -4.5452330000    -0.6848930000
    5      C       0.0000000000    -1.4501350000     0.0000000000
    6      S      -1.3230520000    -2.3213340000     0.7634410000
    7      C       2.1922070000    -1.9344390000    -1.2659410000
    8      H       2.7677090000    -2.8197990000    -1.5986950000
    9      H       2.8601000000    -1.3262100000    -0.6207700000
   10      H       1.9676820000    -1.3253740000    -2.1664380000
   11      H      -1.1334360000    -4.8153260000     0.6526450000
   12      C       0.0000000000     0.0000000000     0.0000000000
   13      C       0.1436300000     0.8323090000     1.1130200000
   14      C       0.3805500000     2.2029610000     0.8205780000
   15      H       0.0775560000     0.4498770000     2.1428810000
   16      C       0.4229950000     2.4474560000    -0.5635880000
   17      S       0.1649090000     0.9565020000    -1.4647480000
   18      C       0.5618880000     3.2520160000     1.8823800000
   19      H       0.4855130000     2.8106240000     2.8949740000
   20      H      -0.2057110000     4.0504820000     1.8081370000
   21      H       1.5530450000     3.7463650000     1.8082300000
   22      H       0.5861050000     3.3915010000    -1.0971140000
 ----------------------------------------------------------------

   10   -1179.6842067986      5.04e-07  Convergence criterion met
 Total energy in the final basis set =    -1179.6842067986
        RIMP2         total energy =     -1181.6631036060 a.u.

                    Orbital Energies (a.u.)
 --------------------------------------------------------------

 Alpha MOs
 -- Occupied --
-91.9855 -91.9855 -11.2800 -11.2752 -11.2719 -11.2655 -11.2525 -11.2513
-11.2425 -11.2422 -11.2292 -11.2281  -8.9850  -8.9850  -6.6659  -6.6659
 -6.6654  -6.6653  -6.6647  -6.6647  -1.1786  -1.1497  -1.0399  -1.0223
 -0.9978  -0.9535  -0.9135  -0.8928  -0.7992  -0.7580  -0.7261  -0.6948
 -0.6618  -0.6165  -0.5823  -0.5781  -0.5735  -0.5696  -0.5514  -0.5319
 -0.5273  -0.5192  -0.5089  -0.4940  -0.4870  -0.4662  -0.4593  -0.3477
 -0.3429  -0.3332  -0.2887

          Ground-State Mulliken Net Atomic Charges

     Atom                 Charge (a.u.)
  ----------------------------------------
      1 C                    -0.216345
      2 C                    -0.249383
      3 C                     0.040431
      4 H                     0.185294
      5 C                    -0.030166
      6 S                     0.025469
      7 C                    -0.288736
      8 H                     0.109356
      9 H                     0.113554
     10 H                     0.111955
     11 H                     0.204225
     12 C                    -0.015220
     13 C                    -0.230609
     14 C                     0.018476
     15 H                     0.187182
     16 C                    -0.235974
     17 S                     0.023582
     18 C                    -0.270734
     19 H                     0.102955
     20 H                     0.108294
     21 H                     0.107938
     22 H                     0.198458
  ----------------------------------------
  Sum of atomic charges =     0.000000

                    Cartesian Multipole Moments
 -----------------------------------------------------------------
    Charge (ESU x 10^10)
                -0.0000
    Dipole Moment (Debye)
         X       1.6453      Y       0.3106      Z       0.6857
       Tot       1.8093
    Quadrupole Moments (Debye-Ang)
        XX     -87.5433     XY      -0.0633     YY     -69.3131
        XZ      -2.7139     YZ       2.2405     ZZ     -84.9933

 Total job time:  54.12s(wall), 1870.85s(cpu)
        *  Thank you very much for using Q-Chem.  Have a nice day.  *
