 Q-Chem 5.4, Q-Chem, Inc., Pleasanton, CA (2021)
 Q-Chem 5.4.0 for Intel X86 EM64T Linux

User input:
--------------------------------------------------------------
$molecule
0 1
C	-0.627947	-3.887800	0.361285
C	0.572038	-3.701456	-0.331462
C	0.939610	-2.345170	-0.542953
H	1.183405	-4.545233	-0.684893
C	-0.000000	-1.450135	-0.000000
S	-1.323052	-2.321334	0.763441
C	2.192207	-1.934439	-1.265941
H	2.767709	-2.819799	-1.598695
H	2.860100	-1.326210	-0.620770
H	1.967682	-1.325374	-2.166438
H	-1.133436	-4.815326	0.652645
C	0.000000	0.000000	0.000000
C	0.070542	0.841660	1.113020
C	0.187101	2.227746	0.820578
H	0.038051	0.454925	2.142881
C	0.208076	2.475009	-0.563588
S	0.080917	0.967235	-1.464748
C	0.276318	3.288613	1.882380
H	0.238704	2.842244	2.894974
H	-0.557951	4.017140	1.808137
H	1.220618	3.867466	1.808230
H	0.288286	3.429678	-1.097114
$end

$rem
JOBTYPE		SP
EXCHANGE	HF
CORRELATION	pRIMP2
BASIS		cc-pvtz
METHOD		rimp2
AUX_BASIS	rimp2-cc-pvtz
SOLVENT_METHOD	PCM
PURECART	11111
SYMMETRY	false
MEM_TOTAL	110000
SCF_CONVERGENCE = 6
THRESH=10
GUI = 2
$end

$solvent
dielectric 4.90
$end
--------------------------------------------------------------

             Standard Nuclear Orientation (Angstroms)
    I     Atom           X                Y                Z
 ----------------------------------------------------------------
    1      C      -0.6279470000    -3.8878000000     0.3612850000
    2      C       0.5720380000    -3.7014560000    -0.3314620000
    3      C       0.9396100000    -2.3451700000    -0.5429530000
    4      H       1.1834050000    -4.5452330000    -0.6848930000
    5      C       0.0000000000    -1.4501350000     0.0000000000
    6      S      -1.3230520000    -2.3213340000     0.7634410000
    7      C       2.1922070000    -1.9344390000    -1.2659410000
    8      H       2.7677090000    -2.8197990000    -1.5986950000
    9      H       2.8601000000    -1.3262100000    -0.6207700000
   10      H       1.9676820000    -1.3253740000    -2.1664380000
   11      H      -1.1334360000    -4.8153260000     0.6526450000
   12      C       0.0000000000     0.0000000000     0.0000000000
   13      C       0.0705420000     0.8416600000     1.1130200000
   14      C       0.1871010000     2.2277460000     0.8205780000
   15      H       0.0380510000     0.4549250000     2.1428810000
   16      C       0.2080760000     2.4750090000    -0.5635880000
   17      S       0.0809170000     0.9672350000    -1.4647480000
   18      C       0.2763180000     3.2886130000     1.8823800000
   19      H       0.2387040000     2.8422440000     2.8949740000
   20      H      -0.5579510000     4.0171400000     1.8081370000
   21      H       1.2206180000     3.8674660000     1.8082300000
   22      H       0.2882860000     3.4296780000    -1.0971140000
 ----------------------------------------------------------------

   10   -1179.6859930934      5.07e-07  Convergence criterion met
 Total energy in the final basis set =    -1179.6859930934
        RIMP2         total energy =     -1181.6642426012 a.u.

                    Orbital Energies (a.u.)
 --------------------------------------------------------------

 Alpha MOs
 -- Occupied --
-91.9859 -91.9856 -11.2805 -11.2750 -11.2723 -11.2650 -11.2529 -11.2512
-11.2426 -11.2416 -11.2291 -11.2286  -8.9854  -8.9850  -6.6663  -6.6659
 -6.6657  -6.6654  -6.6651  -6.6648  -1.1785  -1.1498  -1.0397  -1.0227
 -0.9978  -0.9534  -0.9137  -0.8928  -0.7995  -0.7581  -0.7259  -0.6946
 -0.6621  -0.6165  -0.5825  -0.5782  -0.5734  -0.5696  -0.5516  -0.5321
 -0.5271  -0.5192  -0.5083  -0.4942  -0.4882  -0.4664  -0.4597  -0.3466
 -0.3433  -0.3339  -0.2891

          Ground-State Mulliken Net Atomic Charges

     Atom                 Charge (a.u.)
  ----------------------------------------
      1 C                    -0.215747
      2 C                    -0.248678
      3 C                     0.035261
      4 H                     0.185391
      5 C                    -0.031168
      6 S                     0.025520
      7 C                    -0.288001
      8 H                     0.109364
      9 H                     0.113054
     10 H                     0.111325
     11 H                     0.204358
     12 C                    -0.005392
     13 C                    -0.234053
     14 C                     0.018598
     15 H                     0.187381
     16 C                    -0.237748
     17 S                     0.023768
     18 C                    -0.270985
     19 H                     0.102987
     20 H                     0.108305
     21 H                     0.107984
     22 H                     0.198477
  ----------------------------------------
  Sum of atomic charges =     0.000000

                    Cartesian Multipole Moments
 -----------------------------------------------------------------
    Charge (ESU x 10^10)
                -0.0000
    Dipole Moment (Debye)
         X       1.4705      Y       0.2613      Z       0.6864
       Tot       1.6437
    Quadrupole Moments (Debye-Ang)
        XX     -87.7483     XY      -0.9959     YY     -68.9239
        XZ      -2.8213     YZ       2.2564     ZZ     -85.0192

 Total job time:  53.30s(wall), 1834.54s(cpu)
        *  Thank you very much for using Q-Chem.  Have a nice day.  *
