 Q-Chem 5.4, Q-Chem, Inc., Pleasanton, CA (2021)
 Q-Chem 5.4.0 for Intel X86 EM64T Linux

User input:
--------------------------------------------------------------
$molecule
0 1
C	0.126876	-3.887800	-0.713264
C	-0.113784	-3.701456	0.651267
C	-0.188043	-2.345170	1.068787
H	-0.236019	-4.545233	1.346782
C	0.000000	-1.450135	0.000000
S	0.265612	-2.321334	-1.504247
C	-0.439357	-1.934439	2.493059
H	-0.554378	-2.819799	3.147809
H	-1.362899	-1.326210	2.589987
H	0.394786	-1.325374	2.899892
H	0.228603	-4.815326	-1.287774
C	0.000000	0.000000	0.000000
C	0.143630	0.832309	1.113020
C	0.380550	2.202961	0.820578
H	0.077556	0.449877	2.142881
C	0.422995	2.447456	-0.563588
S	0.164909	0.956502	-1.464748
C	0.561888	3.252016	1.882380
H	0.485513	2.810624	2.894974
H	-0.205711	4.050482	1.808137
H	1.553045	3.746365	1.808230
H	0.586105	3.391501	-1.097114
$end

$rem
JOBTYPE		SP
EXCHANGE	HF
CORRELATION	pRIMP2
BASIS		cc-pvtz
METHOD		rimp2
AUX_BASIS	rimp2-cc-pvtz
SOLVENT_METHOD	PCM
PURECART	11111
SYMMETRY	false
MEM_TOTAL	110000
SCF_CONVERGENCE = 6
THRESH=10
GUI = 2
$end

$solvent
dielectric 4.90
$end
--------------------------------------------------------------

             Standard Nuclear Orientation (Angstroms)
    I     Atom           X                Y                Z
 ----------------------------------------------------------------
    1      C       0.1268760000    -3.8878000000    -0.7132640000
    2      C      -0.1137840000    -3.7014560000     0.6512670000
    3      C      -0.1880430000    -2.3451700000     1.0687870000
    4      H      -0.2360190000    -4.5452330000     1.3467820000
    5      C       0.0000000000    -1.4501350000     0.0000000000
    6      S       0.2656120000    -2.3213340000    -1.5042470000
    7      C      -0.4393570000    -1.9344390000     2.4930590000
    8      H      -0.5543780000    -2.8197990000     3.1478090000
    9      H      -1.3628990000    -1.3262100000     2.5899870000
   10      H       0.3947860000    -1.3253740000     2.8998920000
   11      H       0.2286030000    -4.8153260000    -1.2877740000
   12      C       0.0000000000     0.0000000000     0.0000000000
   13      C       0.1436300000     0.8323090000     1.1130200000
   14      C       0.3805500000     2.2029610000     0.8205780000
   15      H       0.0775560000     0.4498770000     2.1428810000
   16      C       0.4229950000     2.4474560000    -0.5635880000
   17      S       0.1649090000     0.9565020000    -1.4647480000
   18      C       0.5618880000     3.2520160000     1.8823800000
   19      H       0.4855130000     2.8106240000     2.8949740000
   20      H      -0.2057110000     4.0504820000     1.8081370000
   21      H       1.5530450000     3.7463650000     1.8082300000
   22      H       0.5861050000     3.3915010000    -1.0971140000
 ----------------------------------------------------------------

   10   -1179.6831370310      5.03e-07  Convergence criterion met
 Total energy in the final basis set =    -1179.6831370310
        RIMP2         total energy =     -1181.6635843767 a.u.

                    Orbital Energies (a.u.)
 --------------------------------------------------------------

 Alpha MOs
 -- Occupied --
-91.9862 -91.9859 -11.2840 -11.2796 -11.2726 -11.2648 -11.2533 -11.2524
-11.2443 -11.2394 -11.2317 -11.2296  -8.9859  -8.9858  -6.6669  -6.6667
 -6.6663  -6.6662  -6.6657  -6.6655  -1.1812  -1.1505  -1.0413  -1.0278
 -0.9957  -0.9561  -0.9149  -0.8951  -0.8024  -0.7563  -0.7271  -0.7014
 -0.6618  -0.6147  -0.5918  -0.5825  -0.5702  -0.5630  -0.5515  -0.5403
 -0.5301  -0.5230  -0.5033  -0.4915  -0.4889  -0.4769  -0.4517  -0.3699
 -0.3474  -0.3378  -0.2696

          Ground-State Mulliken Net Atomic Charges

     Atom                 Charge (a.u.)
  ----------------------------------------
      1 C                    -0.214028
      2 C                    -0.253699
      3 C                     0.070653
      4 H                     0.185236
      5 C                    -0.050592
      6 S                     0.008612
      7 C                    -0.315023
      8 H                     0.119454
      9 H                     0.115144
     10 H                     0.105065
     11 H                     0.207016
     12 C                     0.033482
     13 C                    -0.231644
     14 C                     0.018887
     15 H                     0.195090
     16 C                    -0.246444
     17 S                     0.004725
     18 C                    -0.271436
     19 H                     0.101216
     20 H                     0.108628
     21 H                     0.109022
     22 H                     0.200637
  ----------------------------------------
  Sum of atomic charges =     0.000000

                    Cartesian Multipole Moments
 -----------------------------------------------------------------
    Charge (ESU x 10^10)
                -0.0000
    Dipole Moment (Debye)
         X       0.0605      Y       0.1695      Z       2.9563
       Tot       2.9618
    Quadrupole Moments (Debye-Ang)
        XX     -92.2691     XY       2.2560     YY     -68.6855
        XZ      -0.9552     YZ      -1.1596     ZZ     -80.2147

 Total job time:  62.99s(wall), 2221.84s(cpu)
        *  Thank you very much for using Q-Chem.  Have a nice day.  *
