 Q-Chem 5.4, Q-Chem, Inc., Pleasanton, CA (2021)
 Q-Chem 5.4.0 for Intel X86 EM64T Linux

User input:
--------------------------------------------------------------
$molecule
0 1
C	0.248806	-3.887800	-0.680396
C	-0.225147	-3.701456	0.621614
C	-0.370780	-2.345170	1.019896
H	-0.466300	-4.545233	1.285337
C	0.000000	-1.450135	0.000000
S	0.522786	-2.321334	-1.435271
C	-0.865597	-1.934439	2.378891
H	-1.092567	-2.819799	3.003720
H	-1.791940	-1.326210	2.313975
H	-0.114772	-1.325374	2.924390
H	0.448750	-4.815326	-1.228514
C	0.000000	0.000000	0.000000
C	0.419634	0.732990	1.113020
C	1.111057	1.939951	0.820578
H	0.226746	0.396221	2.142881
C	1.234565	2.155183	-0.563588
S	0.482106	0.842416	-1.464748
C	1.640257	2.863718	1.882380
H	1.417524	2.475067	2.894974
H	1.192042	3.876565	1.808137
H	2.740717	2.989259	1.808230
H	1.710720	2.986508	-1.097114
$end

$rem
JOBTYPE		SP
EXCHANGE	HF
CORRELATION	pRIMP2
BASIS		cc-pvtz
METHOD		rimp2
AUX_BASIS	rimp2-cc-pvtz
SOLVENT_METHOD	PCM
PURECART	11111
SYMMETRY	false
MEM_TOTAL	110000
SCF_CONVERGENCE = 6
THRESH=10
GUI = 2
$end

$solvent
dielectric 4.90
$end
--------------------------------------------------------------

             Standard Nuclear Orientation (Angstroms)
    I     Atom           X                Y                Z
 ----------------------------------------------------------------
    1      C       0.2488060000    -3.8878000000    -0.6803960000
    2      C      -0.2251470000    -3.7014560000     0.6216140000
    3      C      -0.3707800000    -2.3451700000     1.0198960000
    4      H      -0.4663000000    -4.5452330000     1.2853370000
    5      C       0.0000000000    -1.4501350000     0.0000000000
    6      S       0.5227860000    -2.3213340000    -1.4352710000
    7      C      -0.8655970000    -1.9344390000     2.3788910000
    8      H      -1.0925670000    -2.8197990000     3.0037200000
    9      H      -1.7919400000    -1.3262100000     2.3139750000
   10      H      -0.1147720000    -1.3253740000     2.9243900000
   11      H       0.4487500000    -4.8153260000    -1.2285140000
   12      C       0.0000000000     0.0000000000     0.0000000000
   13      C       0.4196340000     0.7329900000     1.1130200000
   14      C       1.1110570000     1.9399510000     0.8205780000
   15      H       0.2267460000     0.3962210000     2.1428810000
   16      C       1.2345650000     2.1551830000    -0.5635880000
   17      S       0.4821060000     0.8424160000    -1.4647480000
   18      C       1.6402570000     2.8637180000     1.8823800000
   19      H       1.4175240000     2.4750670000     2.8949740000
   20      H       1.1920420000     3.8765650000     1.8081370000
   21      H       2.7407170000     2.9892590000     1.8082300000
   22      H       1.7107200000     2.9865080000    -1.0971140000
 ----------------------------------------------------------------

   10   -1179.6672705072      5.30e-07  Convergence criterion met
 Total energy in the final basis set =    -1179.6672705072
        RIMP2         total energy =     -1181.6516903397 a.u.

                    Orbital Energies (a.u.)
 --------------------------------------------------------------

 Alpha MOs
 -- Occupied --
-91.9863 -91.9837 -11.2796 -11.2786 -11.2715 -11.2667 -11.2538 -11.2467
-11.2464 -11.2420 -11.2304 -11.2298  -8.9862  -8.9835  -6.6671  -6.6665
 -6.6659  -6.6644  -6.6638  -6.6632  -1.1829  -1.1494  -1.0427  -1.0252
 -0.9959  -0.9561  -0.9128  -0.8948  -0.8014  -0.7547  -0.7293  -0.7002
 -0.6595  -0.6154  -0.5924  -0.5820  -0.5707  -0.5618  -0.5510  -0.5401
 -0.5311  -0.5211  -0.5051  -0.4906  -0.4832  -0.4761  -0.4507  -0.3687
 -0.3460  -0.3365  -0.2685

          Ground-State Mulliken Net Atomic Charges

     Atom                 Charge (a.u.)
  ----------------------------------------
      1 C                    -0.230467
      2 C                    -0.245281
      3 C                     0.041365
      4 H                     0.184148
      5 C                    -0.024903
      6 S                     0.011890
      7 C                    -0.311094
      8 H                     0.115465
      9 H                     0.115595
     10 H                     0.100783
     11 H                     0.204557
     12 C                    -0.003657
     13 C                    -0.204342
     14 C                     0.013699
     15 H                     0.195287
     16 C                    -0.223048
     17 S                     0.009053
     18 C                    -0.269772
     19 H                     0.101707
     20 H                     0.108973
     21 H                     0.108440
     22 H                     0.201601
  ----------------------------------------
  Sum of atomic charges =     0.000000

                    Cartesian Multipole Moments
 -----------------------------------------------------------------
    Charge (ESU x 10^10)
                -0.0000
    Dipole Moment (Debye)
         X       0.6427      Y       0.7094      Z       2.8872
       Tot       3.0418
    Quadrupole Moments (Debye-Ang)
        XX     -89.0785     XY       5.8039     YY     -72.4486
        XZ      -1.5217     YZ      -1.2599     ZZ     -80.8453

 Total job time:  48.84s(wall), 1734.04s(cpu)
        *  Thank you very much for using Q-Chem.  Have a nice day.  *
