 Q-Chem 5.4, Q-Chem, Inc., Pleasanton, CA (2021)
 Q-Chem 5.4.0 for Intel X86 EM64T Linux

User input:
--------------------------------------------------------------
$molecule
0 1
C	0.363176	-3.887800	-0.626855
C	-0.329669	-3.701456	0.573074
C	-0.542250	-2.345170	0.940016
H	-0.682412	-4.545233	1.184837
C	0.000000	-1.450135	0.000000
S	0.764076	-2.321334	-1.322686
C	-1.265537	-1.934439	2.192440
H	-1.597559	-2.819799	2.768365
H	-2.166534	-1.326210	1.967653
H	-0.620843	-1.325374	2.860032
H	0.655262	-4.815326	-1.131925
C	0.000000	0.000000	0.000000
C	0.354153	0.766774	1.113020
C	0.937751	2.029404	0.820578
H	0.191350	0.414475	2.142881
C	1.042030	2.254581	-0.563588
S	0.406851	0.881228	-1.464748
C	1.384426	2.995779	1.882380
H	1.196413	2.589194	2.894974
H	0.849641	3.965707	1.808137
H	2.469756	3.216753	1.808230
H	1.443919	3.124243	-1.097114
$end

$rem
JOBTYPE		SP
EXCHANGE	HF
CORRELATION	pRIMP2
BASIS		cc-pvtz
METHOD		rimp2
AUX_BASIS	rimp2-cc-pvtz
SOLVENT_METHOD	PCM
PURECART	11111
SYMMETRY	false
MEM_TOTAL	110000
SCF_CONVERGENCE = 6
THRESH=10
GUI = 2
$end

$solvent
dielectric 4.90
$end
--------------------------------------------------------------

             Standard Nuclear Orientation (Angstroms)
    I     Atom           X                Y                Z
 ----------------------------------------------------------------
    1      C       0.3631760000    -3.8878000000    -0.6268550000
    2      C      -0.3296690000    -3.7014560000     0.5730740000
    3      C      -0.5422500000    -2.3451700000     0.9400160000
    4      H      -0.6824120000    -4.5452330000     1.1848370000
    5      C       0.0000000000    -1.4501350000     0.0000000000
    6      S       0.7640760000    -2.3213340000    -1.3226860000
    7      C      -1.2655370000    -1.9344390000     2.1924400000
    8      H      -1.5975590000    -2.8197990000     2.7683650000
    9      H      -2.1665340000    -1.3262100000     1.9676530000
   10      H      -0.6208430000    -1.3253740000     2.8600320000
   11      H       0.6552620000    -4.8153260000    -1.1319250000
   12      C       0.0000000000     0.0000000000     0.0000000000
   13      C       0.3541530000     0.7667740000     1.1130200000
   14      C       0.9377510000     2.0294040000     0.8205780000
   15      H       0.1913500000     0.4144750000     2.1428810000
   16      C       1.0420300000     2.2545810000    -0.5635880000
   17      S       0.4068510000     0.8812280000    -1.4647480000
   18      C       1.3844260000     2.9957790000     1.8823800000
   19      H       1.1964130000     2.5891940000     2.8949740000
   20      H       0.8496410000     3.9657070000     1.8081370000
   21      H       2.4697560000     3.2167530000     1.8082300000
   22      H       1.4439190000     3.1242430000    -1.0971140000
 ----------------------------------------------------------------

   10   -1179.6740857353      4.92e-07  Convergence criterion met
 Total energy in the final basis set =    -1179.6740857353
        RIMP2         total energy =     -1181.6564316616 a.u.

                    Orbital Energies (a.u.)
 --------------------------------------------------------------

 Alpha MOs
 -- Occupied --
-91.9866 -91.9848 -11.2802 -11.2784 -11.2692 -11.2681 -11.2534 -11.2480
-11.2451 -11.2423 -11.2301 -11.2297  -8.9864  -8.9845  -6.6673  -6.6668
 -6.6662  -6.6654  -6.6648  -6.6642  -1.1817  -1.1497  -1.0420  -1.0247
 -0.9960  -0.9561  -0.9125  -0.8944  -0.8016  -0.7539  -0.7297  -0.6988
 -0.6603  -0.6155  -0.5899  -0.5813  -0.5703  -0.5630  -0.5513  -0.5385
 -0.5307  -0.5208  -0.5060  -0.4910  -0.4842  -0.4754  -0.4534  -0.3652
 -0.3438  -0.3380  -0.2718

          Ground-State Mulliken Net Atomic Charges

     Atom                 Charge (a.u.)
  ----------------------------------------
      1 C                    -0.225384
      2 C                    -0.246989
      3 C                     0.039391
      4 H                     0.184273
      5 C                    -0.027714
      6 S                     0.016252
      7 C                    -0.304618
      8 H                     0.112852
      9 H                     0.114790
     10 H                     0.103737
     11 H                     0.204547
     12 C                    -0.003357
     13 C                    -0.203598
     14 C                     0.011182
     15 H                     0.193831
     16 C                    -0.224949
     17 S                     0.006749
     18 C                    -0.270821
     19 H                     0.101830
     20 H                     0.108769
     21 H                     0.108541
     22 H                     0.200684
  ----------------------------------------
  Sum of atomic charges =     0.000000

                    Cartesian Multipole Moments
 -----------------------------------------------------------------
    Charge (ESU x 10^10)
                -0.0000
    Dipole Moment (Debye)
         X       0.1810      Y       0.5871      Z       2.7641
       Tot       2.8316
    Quadrupole Moments (Debye-Ang)
        XX     -89.1047     XY       5.4705     YY     -71.3402
        XZ      -2.3173     YZ      -0.9867     ZZ     -81.7179

 Total job time:  52.35s(wall), 1792.96s(cpu)
        *  Thank you very much for using Q-Chem.  Have a nice day.  *
