 Q-Chem 5.4, Q-Chem, Inc., Pleasanton, CA (2021)
 Q-Chem 5.4.0 for Intel X86 EM64T Linux

User input:
--------------------------------------------------------------
$molecule
0 1
C	0.724460	-3.887800	0.001092
C	-0.661131	-3.701456	0.001036
C	-1.085203	-2.345170	0.000406
H	-1.367305	-4.545233	0.001433
C	-0.000000	-1.450135	-0.000000
S	1.527517	-2.321334	0.000367
C	-2.531478	-1.934439	0.000233
H	-3.196254	-2.819799	0.000656
H	-2.787305	-1.326210	-0.892447
H	-2.787282	-1.325374	0.892350
H	1.307907	-4.815326	0.001511
C	0.000000	0.000000	0.000000
C	0.540541	0.648986	1.113020
C	1.431046	1.717546	0.820578
H	0.292104	0.350827	2.142881
C	1.590053	1.908061	-0.563588
S	0.621066	0.745901	-1.464748
C	2.112618	2.535384	1.882380
H	1.825779	2.191315	2.894974
H	1.847090	3.610676	1.808137
H	3.218159	2.467925	1.808230
H	2.203332	2.644073	-1.097114
$end

$rem
JOBTYPE		SP
EXCHANGE	HF
CORRELATION	pRIMP2
BASIS		cc-pvtz
METHOD		rimp2
AUX_BASIS	rimp2-cc-pvtz
SOLVENT_METHOD	PCM
PURECART	11111
SYMMETRY	false
MEM_TOTAL	110000
SCF_CONVERGENCE = 6
THRESH=10
GUI = 2
$end

$solvent
dielectric 4.90
$end
--------------------------------------------------------------

             Standard Nuclear Orientation (Angstroms)
    I     Atom           X                Y                Z
 ----------------------------------------------------------------
    1      C       0.7244600000    -3.8878000000     0.0010920000
    2      C      -0.6611310000    -3.7014560000     0.0010360000
    3      C      -1.0852030000    -2.3451700000     0.0004060000
    4      H      -1.3673050000    -4.5452330000     0.0014330000
    5      C       0.0000000000    -1.4501350000     0.0000000000
    6      S       1.5275170000    -2.3213340000     0.0003670000
    7      C      -2.5314780000    -1.9344390000     0.0002330000
    8      H      -3.1962540000    -2.8197990000     0.0006560000
    9      H      -2.7873050000    -1.3262100000    -0.8924470000
   10      H      -2.7872820000    -1.3253740000     0.8923500000
   11      H       1.3079070000    -4.8153260000     0.0015110000
   12      C       0.0000000000     0.0000000000     0.0000000000
   13      C       0.5405410000     0.6489860000     1.1130200000
   14      C       1.4310460000     1.7175460000     0.8205780000
   15      H       0.2921040000     0.3508270000     2.1428810000
   16      C       1.5900530000     1.9080610000    -0.5635880000
   17      S       0.6210660000     0.7459010000    -1.4647480000
   18      C       2.1126180000     2.5353840000     1.8823800000
   19      H       1.8257790000     2.1913150000     2.8949740000
   20      H       1.8470900000     3.6106760000     1.8081370000
   21      H       3.2181590000     2.4679250000     1.8082300000
   22      H       2.2033320000     2.6440730000    -1.0971140000
 ----------------------------------------------------------------

   10   -1179.6563663580      5.68e-07  Convergence criterion met
 Total energy in the final basis set =    -1179.6563663580
        RIMP2         total energy =     -1181.6407329754 a.u.

                    Orbital Energies (a.u.)
 --------------------------------------------------------------

 Alpha MOs
 -- Occupied --
-91.9835 -91.9806 -11.2760 -11.2708 -11.2690 -11.2658 -11.2521 -11.2508
-11.2463 -11.2388 -11.2298 -11.2272  -8.9834  -8.9805  -6.6643  -6.6636
 -6.6631  -6.6613  -6.6608  -6.6602  -1.1813  -1.1478  -1.0410  -1.0200
 -0.9973  -0.9521  -0.9120  -0.8915  -0.7975  -0.7512  -0.7339  -0.6914
 -0.6590  -0.6183  -0.5833  -0.5796  -0.5696  -0.5688  -0.5496  -0.5323
 -0.5293  -0.5172  -0.5085  -0.4908  -0.4735  -0.4643  -0.4625  -0.3539
 -0.3322  -0.3135  -0.3040

          Ground-State Mulliken Net Atomic Charges

     Atom                 Charge (a.u.)
  ----------------------------------------
      1 C                    -0.209724
      2 C                    -0.254657
      3 C                     0.059537
      4 H                     0.182464
      5 C                    -0.066973
      6 S                     0.021831
      7 C                    -0.285171
      8 H                     0.106642
      9 H                     0.110052
     10 H                     0.108517
     11 H                     0.203099
     12 C                    -0.040301
     13 C                    -0.212803
     14 C                     0.027510
     15 H                     0.183209
     16 C                    -0.213939
     17 S                     0.030233
     18 C                    -0.267516
     19 H                     0.103021
     20 H                     0.107736
     21 H                     0.107443
     22 H                     0.199791
  ----------------------------------------
  Sum of atomic charges =     0.000000

                    Cartesian Multipole Moments
 -----------------------------------------------------------------
    Charge (ESU x 10^10)
                -0.0000
    Dipole Moment (Debye)
         X       0.1274      Y       0.5925      Z       1.5768
       Tot       1.6892
    Quadrupole Moments (Debye-Ang)
        XX     -81.5767     XY       8.0547     YY     -74.2307
        XZ       0.6367     YZ       0.8104     ZZ     -86.3440

 Total job time:  52.97s(wall), 1816.83s(cpu)
        *  Thank you very much for using Q-Chem.  Have a nice day.  *
