 Q-Chem 5.4, Q-Chem, Inc., Pleasanton, CA (2021)
 Q-Chem 5.4.0 for Intel X86 EM64T Linux

User input:
--------------------------------------------------------------
$molecule
0 1
C	-0.464838	-3.887800	-0.555670
C	0.425760	-3.701456	0.505790
C	0.697866	-2.345170	0.831053
H	0.879984	-4.545233	1.046496
C	0.000000	-1.450135	0.000000
S	-0.981588	-2.321334	-1.170382
C	1.627381	-1.934439	1.939074
H	2.055015	-2.819799	2.448051
H	1.107991	-1.326210	2.708853
H	2.475210	-1.325374	1.561590
H	-0.839549	-4.815326	-1.002886
C	0.000000	0.000000	0.000000
C	-0.003081	0.844605	1.113020
C	-0.007772	2.235575	0.820578
H	-0.001743	0.456510	2.142881
C	-0.008427	2.483726	-0.563588
S	-0.003691	0.970607	-1.464748
C	-0.011355	3.300181	1.882380
H	-0.009922	2.852233	2.894974
H	-0.905944	3.953225	1.808137
H	0.878901	3.959133	1.808230
H	-0.011727	3.441752	-1.097114
$end

$rem
JOBTYPE		SP
EXCHANGE	HF
CORRELATION	pRIMP2
BASIS		cc-pvtz
METHOD		rimp2
AUX_BASIS	rimp2-cc-pvtz
SOLVENT_METHOD	PCM
PURECART	11111
SYMMETRY	false
MEM_TOTAL	110000
SCF_CONVERGENCE = 6
THRESH=10
GUI = 2
$end

$solvent
dielectric 4.90
$end
--------------------------------------------------------------

             Standard Nuclear Orientation (Angstroms)
    I     Atom           X                Y                Z
 ----------------------------------------------------------------
    1      C      -0.4648380000    -3.8878000000    -0.5556700000
    2      C       0.4257600000    -3.7014560000     0.5057900000
    3      C       0.6978660000    -2.3451700000     0.8310530000
    4      H       0.8799840000    -4.5452330000     1.0464960000
    5      C       0.0000000000    -1.4501350000     0.0000000000
    6      S      -0.9815880000    -2.3213340000    -1.1703820000
    7      C       1.6273810000    -1.9344390000     1.9390740000
    8      H       2.0550150000    -2.8197990000     2.4480510000
    9      H       1.1079910000    -1.3262100000     2.7088530000
   10      H       2.4752100000    -1.3253740000     1.5615900000
   11      H      -0.8395490000    -4.8153260000    -1.0028860000
   12      C       0.0000000000     0.0000000000     0.0000000000
   13      C      -0.0030810000     0.8446050000     1.1130200000
   14      C      -0.0077720000     2.2355750000     0.8205780000
   15      H      -0.0017430000     0.4565100000     2.1428810000
   16      C      -0.0084270000     2.4837260000    -0.5635880000
   17      S      -0.0036910000     0.9706070000    -1.4647480000
   18      C      -0.0113550000     3.3001810000     1.8823800000
   19      H      -0.0099220000     2.8522330000     2.8949740000
   20      H      -0.9059440000     3.9532250000     1.8081370000
   21      H       0.8789010000     3.9591330000     1.8082300000
   22      H      -0.0117270000     3.4417520000    -1.0971140000
 ----------------------------------------------------------------

   10   -1179.6866588280      5.24e-07  Convergence criterion met
 Total energy in the final basis set =    -1179.6866588280
        RIMP2         total energy =     -1181.6653820491 a.u.

                    Orbital Energies (a.u.)
 --------------------------------------------------------------

 Alpha MOs
 -- Occupied --
-91.9864 -91.9861 -11.2825 -11.2773 -11.2729 -11.2642 -11.2536 -11.2521
-11.2436 -11.2402 -11.2300 -11.2294  -8.9859  -8.9858  -6.6668  -6.6667
 -6.6663  -6.6661  -6.6657  -6.6655  -1.1797  -1.1502  -1.0404  -1.0253
 -0.9961  -0.9557  -0.9135  -0.8940  -0.8017  -0.7543  -0.7292  -0.6983
 -0.6621  -0.6156  -0.5874  -0.5809  -0.5702  -0.5640  -0.5516  -0.5366
 -0.5296  -0.5215  -0.5056  -0.4920  -0.4890  -0.4720  -0.4571  -0.3577
 -0.3433  -0.3394  -0.2783

          Ground-State Mulliken Net Atomic Charges

     Atom                 Charge (a.u.)
  ----------------------------------------
      1 C                    -0.213827
      2 C                    -0.249898
      3 C                     0.048023
      4 H                     0.185481
      5 C                    -0.037546
      6 S                     0.017139
      7 C                    -0.292906
      8 H                     0.112376
      9 H                     0.106368
     10 H                     0.115234
     11 H                     0.205198
     12 C                     0.009159
     13 C                    -0.235872
     14 C                     0.019310
     15 H                     0.192452
     16 C                    -0.244132
     17 S                     0.016937
     18 C                    -0.272108
     19 H                     0.102148
     20 H                     0.108975
     21 H                     0.108393
     22 H                     0.199097
  ----------------------------------------
  Sum of atomic charges =     0.000000

                    Cartesian Multipole Moments
 -----------------------------------------------------------------
    Charge (ESU x 10^10)
                -0.0000
    Dipole Moment (Debye)
         X       0.9667      Y       0.1863      Z       2.6253
       Tot       2.8038
    Quadrupole Moments (Debye-Ang)
        XX     -90.0319     XY      -1.4413     YY     -68.4845
        XZ       3.2642     YZ      -0.5602     ZZ     -82.8648

 Total job time:  79.10s(wall), 1960.26s(cpu)
        *  Thank you very much for using Q-Chem.  Have a nice day.  *
