 Q-Chem 5.4, Q-Chem, Inc., Pleasanton, CA (2021)
 Q-Chem 5.4.0 for Intel X86 EM64T Linux

User input:
--------------------------------------------------------------
$molecule
0 1
C	-0.464838	-3.887800	-0.555670
C	0.425760	-3.701456	0.505790
C	0.697866	-2.345170	0.831053
H	0.879984	-4.545233	1.046496
C	0.000000	-1.450135	0.000000
S	-0.981588	-2.321334	-1.170382
C	1.627381	-1.934439	1.939074
H	2.055015	-2.819799	2.448051
H	1.107991	-1.326210	2.708853
H	2.475210	-1.325374	1.561590
H	-0.839549	-4.815326	-1.002886
C	0.000000	0.000000	0.000000
C	0.645024	0.545262	1.113020
C	1.707554	1.442954	0.820578
H	0.348587	0.294774	2.142881
C	1.897227	1.602964	-0.563588
S	0.741155	0.626722	-1.464748
C	2.520787	2.130014	1.882380
H	2.178559	1.840981	2.894974
H	2.446016	3.235078	1.808137
H	3.597818	1.871604	1.808230
H	2.628997	2.221299	-1.097114
$end

$rem
JOBTYPE		SP
EXCHANGE	HF
CORRELATION	pRIMP2
BASIS		cc-pvtz
METHOD		rimp2
AUX_BASIS	rimp2-cc-pvtz
SOLVENT_METHOD	PCM
PURECART	11111
SYMMETRY	false
MEM_TOTAL	110000
SCF_CONVERGENCE = 6
THRESH=10
GUI = 2
$end

$solvent
dielectric 4.90
$end
--------------------------------------------------------------

             Standard Nuclear Orientation (Angstroms)
    I     Atom           X                Y                Z
 ----------------------------------------------------------------
    1      C      -0.4648380000    -3.8878000000    -0.5556700000
    2      C       0.4257600000    -3.7014560000     0.5057900000
    3      C       0.6978660000    -2.3451700000     0.8310530000
    4      H       0.8799840000    -4.5452330000     1.0464960000
    5      C       0.0000000000    -1.4501350000     0.0000000000
    6      S      -0.9815880000    -2.3213340000    -1.1703820000
    7      C       1.6273810000    -1.9344390000     1.9390740000
    8      H       2.0550150000    -2.8197990000     2.4480510000
    9      H       1.1079910000    -1.3262100000     2.7088530000
   10      H       2.4752100000    -1.3253740000     1.5615900000
   11      H      -0.8395490000    -4.8153260000    -1.0028860000
   12      C       0.0000000000     0.0000000000     0.0000000000
   13      C       0.6450240000     0.5452620000     1.1130200000
   14      C       1.7075540000     1.4429540000     0.8205780000
   15      H       0.3485870000     0.2947740000     2.1428810000
   16      C       1.8972270000     1.6029640000    -0.5635880000
   17      S       0.7411550000     0.6267220000    -1.4647480000
   18      C       2.5207870000     2.1300140000     1.8823800000
   19      H       2.1785590000     1.8409810000     2.8949740000
   20      H       2.4460160000     3.2350780000     1.8081370000
   21      H       3.5978180000     1.8716040000     1.8082300000
   22      H       2.6289970000     2.2212990000    -1.0971140000
 ----------------------------------------------------------------

   10   -1179.6333064584      9.82e-07  Convergence criterion met
 Total energy in the final basis set =    -1179.6333064584
        RIMP2         total energy =     -1181.6260933597 a.u.

                    Orbital Energies (a.u.)
 --------------------------------------------------------------

 Alpha MOs
 -- Occupied --
-91.9825 -91.9765 -11.2826 -11.2765 -11.2652 -11.2617 -11.2561 -11.2535
-11.2443 -11.2396 -11.2317 -11.2270  -8.9829  -8.9768  -6.6637  -6.6630
 -6.6625  -6.6577  -6.6571  -6.6565  -1.1866  -1.1471  -1.0440  -1.0240
 -0.9962  -0.9529  -0.9140  -0.8929  -0.7959  -0.7538  -0.7342  -0.7011
 -0.6553  -0.6180  -0.5944  -0.5835  -0.5697  -0.5604  -0.5486  -0.5399
 -0.5268  -0.5240  -0.5077  -0.4890  -0.4735  -0.4634  -0.4537  -0.3540
 -0.3421  -0.3379  -0.2740

          Ground-State Mulliken Net Atomic Charges

     Atom                 Charge (a.u.)
  ----------------------------------------
      1 C                    -0.217335
      2 C                    -0.260547
      3 C                     0.044825
      4 H                     0.183829
      5 C                     0.002315
      6 S                    -0.002385
      7 C                    -0.303359
      8 H                     0.115119
      9 H                     0.102641
     10 H                     0.116298
     11 H                     0.202301
     12 C                    -0.105292
     13 C                    -0.176411
     14 C                     0.006048
     15 H                     0.193415
     16 C                    -0.196644
     17 S                     0.037867
     18 C                    -0.273133
     19 H                     0.104532
     20 H                     0.115964
     21 H                     0.107838
     22 H                     0.202113
  ----------------------------------------
  Sum of atomic charges =     0.000000

                    Cartesian Multipole Moments
 -----------------------------------------------------------------
    Charge (ESU x 10^10)
                -0.0000
    Dipole Moment (Debye)
         X       3.2129      Y       0.8069      Z       2.9163
       Tot       4.4135
    Quadrupole Moments (Debye-Ang)
        XX     -82.8793     XY       4.5903     YY     -77.1689
        XZ       3.6911     YZ      -1.1382     ZZ     -82.7176

 Total job time:  51.91s(wall), 1790.80s(cpu)
        *  Thank you very much for using Q-Chem.  Have a nice day.  *
