 Q-Chem 5.4, Q-Chem, Inc., Pleasanton, CA (2021)
 Q-Chem 5.4.0 for Intel X86 EM64T Linux

User input:
--------------------------------------------------------------
$molecule
0 1
C	-0.126876	-3.887800	0.713264
C	0.113784	-3.701456	-0.651267
C	0.188043	-2.345170	-1.068787
H	0.236019	-4.545233	-1.346782
C	0.000000	-1.450135	0.000000
S	-0.265612	-2.321334	1.504247
C	0.439357	-1.934439	-2.493059
H	0.554378	-2.819799	-3.147809
H	1.362899	-1.326210	-2.589987
H	-0.394786	-1.325374	-2.899892
H	-0.228603	-4.815326	1.287774
C	0.000000	0.000000	0.000000
C	0.354153	0.766774	1.113020
C	0.937751	2.029404	0.820578
H	0.191350	0.414475	2.142881
C	1.042030	2.254581	-0.563588
S	0.406851	0.881228	-1.464748
C	1.384426	2.995779	1.882380
H	1.196413	2.589194	2.894974
H	0.849641	3.965707	1.808137
H	2.469756	3.216753	1.808230
H	1.443919	3.124243	-1.097114
$end

$rem
JOBTYPE		SP
EXCHANGE	HF
CORRELATION	pRIMP2
BASIS		cc-pvtz
METHOD		rimp2
AUX_BASIS	rimp2-cc-pvtz
SOLVENT_METHOD	PCM
PURECART	11111
SYMMETRY	false
MEM_TOTAL	110000
SCF_CONVERGENCE = 6
THRESH=10
GUI = 2
$end

$solvent
dielectric 4.90
$end
--------------------------------------------------------------

             Standard Nuclear Orientation (Angstroms)
    I     Atom           X                Y                Z
 ----------------------------------------------------------------
    1      C      -0.1268760000    -3.8878000000     0.7132640000
    2      C       0.1137840000    -3.7014560000    -0.6512670000
    3      C       0.1880430000    -2.3451700000    -1.0687870000
    4      H       0.2360190000    -4.5452330000    -1.3467820000
    5      C       0.0000000000    -1.4501350000     0.0000000000
    6      S      -0.2656120000    -2.3213340000     1.5042470000
    7      C       0.4393570000    -1.9344390000    -2.4930590000
    8      H       0.5543780000    -2.8197990000    -3.1478090000
    9      H       1.3628990000    -1.3262100000    -2.5899870000
   10      H      -0.3947860000    -1.3253740000    -2.8998920000
   11      H      -0.2286030000    -4.8153260000     1.2877740000
   12      C       0.0000000000     0.0000000000     0.0000000000
   13      C       0.3541530000     0.7667740000     1.1130200000
   14      C       0.9377510000     2.0294040000     0.8205780000
   15      H       0.1913500000     0.4144750000     2.1428810000
   16      C       1.0420300000     2.2545810000    -0.5635880000
   17      S       0.4068510000     0.8812280000    -1.4647480000
   18      C       1.3844260000     2.9957790000     1.8823800000
   19      H       1.1964130000     2.5891940000     2.8949740000
   20      H       0.8496410000     3.9657070000     1.8081370000
   21      H       2.4697560000     3.2167530000     1.8082300000
   22      H       1.4439190000     3.1242430000    -1.0971140000
 ----------------------------------------------------------------

   10   -1179.6715586614      5.24e-07  Convergence criterion met
 Total energy in the final basis set =    -1179.6715586614
        RIMP2         total energy =     -1181.6558978948 a.u.

                    Orbital Energies (a.u.)
 --------------------------------------------------------------

 Alpha MOs
 -- Occupied --
-91.9845 -91.9835 -11.2809 -11.2793 -11.2703 -11.2659 -11.2524 -11.2500
-11.2428 -11.2427 -11.2292 -11.2281  -8.9845  -8.9834  -6.6653  -6.6647
 -6.6644  -6.6641  -6.6639  -6.6632  -1.1819  -1.1494  -1.0422  -1.0244
 -0.9983  -0.9522  -0.9135  -0.8957  -0.7978  -0.7649  -0.7202  -0.6956
 -0.6613  -0.6162  -0.5839  -0.5819  -0.5778  -0.5695  -0.5520  -0.5331
 -0.5234  -0.5208  -0.5117  -0.4969  -0.4855  -0.4662  -0.4493  -0.3703
 -0.3426  -0.3391  -0.2675

          Ground-State Mulliken Net Atomic Charges

     Atom                 Charge (a.u.)
  ----------------------------------------
      1 C                    -0.215474
      2 C                    -0.251670
      3 C                     0.052838
      4 H                     0.185541
      5 C                    -0.036777
      6 S                     0.003588
      7 C                    -0.316266
      8 H                     0.114619
      9 H                     0.118749
     10 H                     0.111962
     11 H                     0.205735
     12 C                     0.035934
     13 C                    -0.245640
     14 C                     0.031160
     15 H                     0.177287
     16 C                    -0.248192
     17 S                     0.026182
     18 C                    -0.268801
     19 H                     0.102958
     20 H                     0.108567
     21 H                     0.108061
     22 H                     0.199639
  ----------------------------------------
  Sum of atomic charges =     0.000000

                    Cartesian Multipole Moments
 -----------------------------------------------------------------
    Charge (ESU x 10^10)
                -0.0000
    Dipole Moment (Debye)
         X       1.1609      Y       0.3234      Z      -0.1486
       Tot       1.2142
    Quadrupole Moments (Debye-Ang)
        XX     -90.5400     XY       3.7515     YY     -71.4102
        XZ      -0.7917     YZ       3.3494     ZZ     -80.0033

 Total job time:  53.07s(wall), 1814.48s(cpu)
        *  Thank you very much for using Q-Chem.  Have a nice day.  *
