 Q-Chem 5.4, Q-Chem, Inc., Pleasanton, CA (2021)
 Q-Chem 5.4.0 for Intel X86 EM64T Linux

User input:
--------------------------------------------------------------
$molecule
0 1
C	-0.680396	-3.887800	-0.248806
C	0.621614	-3.701456	0.225147
C	1.019896	-2.345170	0.370780
H	1.285337	-4.545233	0.466300
C	0.000000	-1.450135	0.000000
S	-1.435271	-2.321334	-0.522786
C	2.378891	-1.934439	0.865597
H	3.003720	-2.819799	1.092567
H	2.313975	-1.326210	1.791940
H	2.924390	-1.325374	0.114772
H	-1.228514	-4.815326	-0.448750
C	0.000000	0.000000	0.000000
C	0.729909	0.424971	1.113020
C	1.932179	1.124518	0.820578
H	0.394478	0.229765	2.142881
C	2.146756	1.249161	-0.563588
S	0.838724	0.488500	-1.464748
C	2.852364	1.659924	1.882380
H	2.465145	1.434710	2.894974
H	2.970621	2.761183	1.808137
H	3.868160	1.218416	1.808230
H	2.974781	1.731032	-1.097114
$end

$rem
JOBTYPE		SP
EXCHANGE	HF
CORRELATION	pRIMP2
BASIS		cc-pvtz
METHOD		rimp2
AUX_BASIS	rimp2-cc-pvtz
SOLVENT_METHOD	PCM
PURECART	11111
SYMMETRY	false
MEM_TOTAL	110000
SCF_CONVERGENCE = 6
THRESH=10
GUI = 2
$end

$solvent
dielectric 4.90
$end
--------------------------------------------------------------

             Standard Nuclear Orientation (Angstroms)
    I     Atom           X                Y                Z
 ----------------------------------------------------------------
    1      C      -0.6803960000    -3.8878000000    -0.2488060000
    2      C       0.6216140000    -3.7014560000     0.2251470000
    3      C       1.0198960000    -2.3451700000     0.3707800000
    4      H       1.2853370000    -4.5452330000     0.4663000000
    5      C       0.0000000000    -1.4501350000     0.0000000000
    6      S      -1.4352710000    -2.3213340000    -0.5227860000
    7      C       2.3788910000    -1.9344390000     0.8655970000
    8      H       3.0037200000    -2.8197990000     1.0925670000
    9      H       2.3139750000    -1.3262100000     1.7919400000
   10      H       2.9243900000    -1.3253740000     0.1147720000
   11      H      -1.2285140000    -4.8153260000    -0.4487500000
   12      C       0.0000000000     0.0000000000     0.0000000000
   13      C       0.7299090000     0.4249710000     1.1130200000
   14      C       1.9321790000     1.1245180000     0.8205780000
   15      H       0.3944780000     0.2297650000     2.1428810000
   16      C       2.1467560000     1.2491610000    -0.5635880000
   17      S       0.8387240000     0.4885000000    -1.4647480000
   18      C       2.8523640000     1.6599240000     1.8823800000
   19      H       2.4651450000     1.4347100000     2.8949740000
   20      H       2.9706210000     2.7611830000     1.8081370000
   21      H       3.8681600000     1.2184160000     1.8082300000
   22      H       2.9747810000     1.7310320000    -1.0971140000
 ----------------------------------------------------------------

   11   -1179.6123979463      4.71e-07  Convergence criterion met
 Total energy in the final basis set =    -1179.6123979463
        RIMP2         total energy =     -1181.6115600939 a.u.

                    Orbital Energies (a.u.)
 --------------------------------------------------------------

 Alpha MOs
 -- Occupied --
-91.9829 -91.9741 -11.2886 -11.2741 -11.2648 -11.2627 -11.2522 -11.2504
-11.2415 -11.2375 -11.2322 -11.2247  -8.9833  -8.9742  -6.6640  -6.6632
 -6.6629  -6.6552  -6.6545  -6.6540  -1.1907  -1.1449  -1.0454  -1.0192
 -0.9992  -0.9519  -0.9144  -0.8894  -0.7939  -0.7496  -0.7418  -0.6965
 -0.6543  -0.6213  -0.5877  -0.5848  -0.5713  -0.5661  -0.5485  -0.5357
 -0.5255  -0.5229  -0.5120  -0.4873  -0.4685  -0.4621  -0.4460  -0.3499
 -0.3371  -0.3261  -0.2866

          Ground-State Mulliken Net Atomic Charges

     Atom                 Charge (a.u.)
  ----------------------------------------
      1 C                    -0.221682
      2 C                    -0.261536
      3 C                     0.045996
      4 H                     0.183103
      5 C                     0.009001
      6 S                    -0.001825
      7 C                    -0.325007
      8 H                     0.119773
      9 H                     0.109107
     10 H                     0.119681
     11 H                     0.199464
     12 C                    -0.172679
     13 C                    -0.112214
     14 C                    -0.009244
     15 H                     0.195372
     16 C                    -0.183328
     17 S                     0.043548
     18 C                    -0.276819
     19 H                     0.106426
     20 H                     0.121645
     21 H                     0.106982
     22 H                     0.204236
  ----------------------------------------
  Sum of atomic charges =     0.000000

                    Cartesian Multipole Moments
 -----------------------------------------------------------------
    Charge (ESU x 10^10)
                -0.0000
    Dipole Moment (Debye)
         X       4.3360      Y       0.7619      Z       2.2597
       Tot       4.9485
    Quadrupole Moments (Debye-Ang)
        XX     -77.8387     XY       3.2524     YY     -80.1511
        XZ       2.5116     YZ      -0.2119     ZZ     -85.2280

 Total job time:  87.18s(wall), 2007.39s(cpu)
        *  Thank you very much for using Q-Chem.  Have a nice day.  *
