 Q-Chem 5.4, Q-Chem, Inc., Pleasanton, CA (2021)
 Q-Chem 5.4.0 for Intel X86 EM64T Linux

User input:
--------------------------------------------------------------
$molecule
0 1
C	-0.724460	-3.887800	-0.001092
C	0.661131	-3.701456	-0.001036
C	1.085203	-2.345170	-0.000406
H	1.367305	-4.545233	-0.001433
C	0.000000	-1.450135	0.000000
S	-1.527517	-2.321334	-0.000367
C	2.531478	-1.934439	-0.000233
H	3.196254	-2.819799	-0.000656
H	2.787305	-1.326210	0.892447
H	2.787282	-1.325374	-0.892350
H	-1.307907	-4.815326	-0.001511
C	0.000000	0.000000	0.000000
C	0.645024	0.545262	1.113020
C	1.707554	1.442954	0.820578
H	0.348587	0.294774	2.142881
C	1.897227	1.602964	-0.563588
S	0.741155	0.626722	-1.464748
C	2.520787	2.130014	1.882380
H	2.178559	1.840981	2.894974
H	2.446016	3.235078	1.808137
H	3.597818	1.871604	1.808230
H	2.628997	2.221299	-1.097114
$end

$rem
JOBTYPE		SP
EXCHANGE	HF
CORRELATION	pRIMP2
BASIS		cc-pvtz
METHOD		rimp2
AUX_BASIS	rimp2-cc-pvtz
SOLVENT_METHOD	PCM
PURECART	11111
SYMMETRY	false
MEM_TOTAL	110000
SCF_CONVERGENCE = 6
THRESH=10
GUI = 2
$end

$solvent
dielectric 4.90
$end
--------------------------------------------------------------

             Standard Nuclear Orientation (Angstroms)
    I     Atom           X                Y                Z
 ----------------------------------------------------------------
    1      C      -0.7244600000    -3.8878000000    -0.0010920000
    2      C       0.6611310000    -3.7014560000    -0.0010360000
    3      C       1.0852030000    -2.3451700000    -0.0004060000
    4      H       1.3673050000    -4.5452330000    -0.0014330000
    5      C       0.0000000000    -1.4501350000     0.0000000000
    6      S      -1.5275170000    -2.3213340000    -0.0003670000
    7      C       2.5314780000    -1.9344390000    -0.0002330000
    8      H       3.1962540000    -2.8197990000    -0.0006560000
    9      H       2.7873050000    -1.3262100000     0.8924470000
   10      H       2.7872820000    -1.3253740000    -0.8923500000
   11      H      -1.3079070000    -4.8153260000    -0.0015110000
   12      C       0.0000000000     0.0000000000     0.0000000000
   13      C       0.6450240000     0.5452620000     1.1130200000
   14      C       1.7075540000     1.4429540000     0.8205780000
   15      H       0.3485870000     0.2947740000     2.1428810000
   16      C       1.8972270000     1.6029640000    -0.5635880000
   17      S       0.7411550000     0.6267220000    -1.4647480000
   18      C       2.5207870000     2.1300140000     1.8823800000
   19      H       2.1785590000     1.8409810000     2.8949740000
   20      H       2.4460160000     3.2350780000     1.8081370000
   21      H       3.5978180000     1.8716040000     1.8082300000
   22      H       2.6289970000     2.2212990000    -1.0971140000
 ----------------------------------------------------------------

   10   -1179.6380075438      9.52e-07  Convergence criterion met
 Total energy in the final basis set =    -1179.6380075438
        RIMP2         total energy =     -1181.6307534223 a.u.

                    Orbital Energies (a.u.)
 --------------------------------------------------------------

 Alpha MOs
 -- Occupied --
-91.9836 -91.9768 -11.2820 -11.2734 -11.2645 -11.2596 -11.2580 -11.2525
-11.2444 -11.2384 -11.2312 -11.2246  -8.9837  -8.9768  -6.6645  -6.6638
 -6.6634  -6.6577  -6.6571  -6.6565  -1.1850  -1.1464  -1.0431  -1.0173
 -0.9989  -0.9528  -0.9127  -0.8899  -0.7947  -0.7512  -0.7369  -0.6945
 -0.6564  -0.6194  -0.5838  -0.5817  -0.5724  -0.5678  -0.5487  -0.5333
 -0.5251  -0.5225  -0.5123  -0.4884  -0.4689  -0.4649  -0.4505  -0.3497
 -0.3378  -0.3162  -0.2985

          Ground-State Mulliken Net Atomic Charges

     Atom                 Charge (a.u.)
  ----------------------------------------
      1 C                    -0.219632
      2 C                    -0.256819
      3 C                     0.057527
      4 H                     0.183723
      5 C                    -0.016038
      6 S                     0.005164
      7 C                    -0.316369
      8 H                     0.118331
      9 H                     0.113306
     10 H                     0.115757
     11 H                     0.200113
     12 C                    -0.104795
     13 C                    -0.180552
     14 C                     0.019887
     15 H                     0.188801
     16 C                    -0.198197
     17 S                     0.034985
     18 C                    -0.268521
     19 H                     0.104139
     20 H                     0.112049
     21 H                     0.105961
     22 H                     0.201179
  ----------------------------------------
  Sum of atomic charges =     0.000000

                    Cartesian Multipole Moments
 -----------------------------------------------------------------
    Charge (ESU x 10^10)
                -0.0000
    Dipole Moment (Debye)
         X       3.7509      Y       0.8190      Z       1.6322
       Tot       4.1719
    Quadrupole Moments (Debye-Ang)
        XX     -79.6405     XY       3.6065     YY     -77.5415
        XZ       0.6051     YZ       0.7596     ZZ     -86.1118

 Total job time:  52.66s(wall), 1821.58s(cpu)
        *  Thank you very much for using Q-Chem.  Have a nice day.  *
