 Q-Chem 5.4, Q-Chem, Inc., Pleasanton, CA (2021)
 Q-Chem 5.4.0 for Intel X86 EM64T Linux

User input:
--------------------------------------------------------------
$molecule
0 1
C	0.713264	-3.887800	0.126876
C	-0.651267	-3.701456	-0.113784
C	-1.068787	-2.345170	-0.188043
H	-1.346782	-4.545233	-0.236019
C	0.000000	-1.450135	0.000000
S	1.504247	-2.321334	0.265612
C	-2.493059	-1.934439	-0.439357
H	-3.147809	-2.819799	-0.554378
H	-2.589987	-1.326210	-1.362899
H	-2.899892	-1.325374	0.394786
H	1.287774	-4.815326	0.228603
C	0.000000	0.000000	0.000000
C	0.419634	0.732990	1.113020
C	1.111057	1.939951	0.820578
H	0.226746	0.396221	2.142881
C	1.234565	2.155183	-0.563588
S	0.482106	0.842416	-1.464748
C	1.640257	2.863718	1.882380
H	1.417524	2.475067	2.894974
H	1.192042	3.876565	1.808137
H	2.740717	2.989259	1.808230
H	1.710720	2.986508	-1.097114
$end

$rem
JOBTYPE		SP
EXCHANGE	HF
CORRELATION	pRIMP2
BASIS		cc-pvtz
METHOD		rimp2
AUX_BASIS	rimp2-cc-pvtz
SOLVENT_METHOD	PCM
PURECART	11111
SYMMETRY	false
MEM_TOTAL	110000
SCF_CONVERGENCE = 6
THRESH=10
GUI = 2
$end

$solvent
dielectric 4.90
$end
--------------------------------------------------------------

             Standard Nuclear Orientation (Angstroms)
    I     Atom           X                Y                Z
 ----------------------------------------------------------------
    1      C       0.7132640000    -3.8878000000     0.1268760000
    2      C      -0.6512670000    -3.7014560000    -0.1137840000
    3      C      -1.0687870000    -2.3451700000    -0.1880430000
    4      H      -1.3467820000    -4.5452330000    -0.2360190000
    5      C       0.0000000000    -1.4501350000     0.0000000000
    6      S       1.5042470000    -2.3213340000     0.2656120000
    7      C      -2.4930590000    -1.9344390000    -0.4393570000
    8      H      -3.1478090000    -2.8197990000    -0.5543780000
    9      H      -2.5899870000    -1.3262100000    -1.3628990000
   10      H      -2.8998920000    -1.3253740000     0.3947860000
   11      H       1.2877740000    -4.8153260000     0.2286030000
   12      C       0.0000000000     0.0000000000     0.0000000000
   13      C       0.4196340000     0.7329900000     1.1130200000
   14      C       1.1110570000     1.9399510000     0.8205780000
   15      H       0.2267460000     0.3962210000     2.1428810000
   16      C       1.2345650000     2.1551830000    -0.5635880000
   17      S       0.4821060000     0.8424160000    -1.4647480000
   18      C       1.6402570000     2.8637180000     1.8823800000
   19      H       1.4175240000     2.4750670000     2.8949740000
   20      H       1.1920420000     3.8765650000     1.8081370000
   21      H       2.7407170000     2.9892590000     1.8082300000
   22      H       1.7107200000     2.9865080000    -1.0971140000
 ----------------------------------------------------------------

   10   -1179.6701599420      5.15e-07  Convergence criterion met
 Total energy in the final basis set =    -1179.6701599420
        RIMP2         total energy =     -1181.6513401002 a.u.

                    Orbital Energies (a.u.)
 --------------------------------------------------------------

 Alpha MOs
 -- Occupied --
-91.9841 -91.9833 -11.2720 -11.2711 -11.2709 -11.2708 -11.2514 -11.2494
-11.2463 -11.2402 -11.2294 -11.2282  -8.9838  -8.9829  -6.6647  -6.6641
 -6.6638  -6.6635  -6.6632  -6.6626  -1.1793  -1.1487  -1.0399  -1.0214
 -0.9971  -0.9523  -0.9129  -0.8918  -0.7983  -0.7537  -0.7306  -0.6922
 -0.6606  -0.6173  -0.5826  -0.5794  -0.5705  -0.5691  -0.5504  -0.5322
 -0.5281  -0.5180  -0.5080  -0.4920  -0.4802  -0.4642  -0.4628  -0.3495
 -0.3348  -0.3193  -0.3027

          Ground-State Mulliken Net Atomic Charges

     Atom                 Charge (a.u.)
  ----------------------------------------
      1 C                    -0.206862
      2 C                    -0.254604
      3 C                     0.059281
      4 H                     0.183291
      5 C                    -0.060953
      6 S                     0.026176
      7 C                    -0.285543
      8 H                     0.106784
      9 H                     0.109870
     10 H                     0.110027
     11 H                     0.203737
     12 C                    -0.008565
     13 C                    -0.255511
     14 C                     0.041465
     15 H                     0.184842
     16 C                    -0.230380
     17 S                     0.027669
     18 C                    -0.268375
     19 H                     0.102994
     20 H                     0.107705
     21 H                     0.107903
     22 H                     0.199048
  ----------------------------------------
  Sum of atomic charges =     0.000000

                    Cartesian Multipole Moments
 -----------------------------------------------------------------
    Charge (ESU x 10^10)
                -0.0000
    Dipole Moment (Debye)
         X      -0.3631      Y       0.4188      Z       1.2679
       Tot       1.3837
    Quadrupole Moments (Debye-Ang)
        XX     -83.6147     XY       7.1040     YY     -71.8513
        XZ       1.6616     YZ       1.3386     ZZ     -86.3605

 Total job time:  47.27s(wall), 1674.89s(cpu)
        *  Thank you very much for using Q-Chem.  Have a nice day.  *
