 Q-Chem 5.4, Q-Chem, Inc., Pleasanton, CA (2021)
 Q-Chem 5.4.0 for Intel X86 EM64T Linux

User input:
--------------------------------------------------------------
$molecule
0 1
C	-0.466510	-3.887800	0.554267
C	0.424173	-3.701456	-0.507121
C	0.697244	-2.345170	-0.831575
H	0.877789	-4.545233	-1.048337
C	0.000000	-1.450135	0.000000
S	-0.982150	-2.321334	1.169911
C	1.627024	-1.934439	-1.939374
H	2.054010	-2.819799	-2.448894
H	2.475299	-1.326210	-1.561545
H	1.108051	-1.325374	-2.708773
H	-0.841863	-4.815326	1.000944
C	0.000000	0.000000	0.000000
C	0.729909	0.424971	1.113020
C	1.932179	1.124518	0.820578
H	0.394478	0.229765	2.142881
C	2.146756	1.249161	-0.563588
S	0.838724	0.488500	-1.464748
C	2.852364	1.659924	1.882380
H	2.465145	1.434710	2.894974
H	2.970621	2.761183	1.808137
H	3.868160	1.218416	1.808230
H	2.974781	1.731032	-1.097114
$end

$rem
JOBTYPE		SP
EXCHANGE	HF
CORRELATION	pRIMP2
BASIS		cc-pvtz
METHOD		rimp2
AUX_BASIS	rimp2-cc-pvtz
SOLVENT_METHOD	PCM
PURECART	11111
SYMMETRY	false
MEM_TOTAL	110000
SCF_CONVERGENCE = 6
THRESH=10
GUI = 2
$end

$solvent
dielectric 4.90
$end
--------------------------------------------------------------

             Standard Nuclear Orientation (Angstroms)
    I     Atom           X                Y                Z
 ----------------------------------------------------------------
    1      C      -0.4665100000    -3.8878000000     0.5542670000
    2      C       0.4241730000    -3.7014560000    -0.5071210000
    3      C       0.6972440000    -2.3451700000    -0.8315750000
    4      H       0.8777890000    -4.5452330000    -1.0483370000
    5      C       0.0000000000    -1.4501350000     0.0000000000
    6      S      -0.9821500000    -2.3213340000     1.1699110000
    7      C       1.6270240000    -1.9344390000    -1.9393740000
    8      H       2.0540100000    -2.8197990000    -2.4488940000
    9      H       2.4752990000    -1.3262100000    -1.5615450000
   10      H       1.1080510000    -1.3253740000    -2.7087730000
   11      H      -0.8418630000    -4.8153260000     1.0009440000
   12      C       0.0000000000     0.0000000000     0.0000000000
   13      C       0.7299090000     0.4249710000     1.1130200000
   14      C       1.9321790000     1.1245180000     0.8205780000
   15      H       0.3944780000     0.2297650000     2.1428810000
   16      C       2.1467560000     1.2491610000    -0.5635880000
   17      S       0.8387240000     0.4885000000    -1.4647480000
   18      C       2.8523640000     1.6599240000     1.8823800000
   19      H       2.4651450000     1.4347100000     2.8949740000
   20      H       2.9706210000     2.7611830000     1.8081370000
   21      H       3.8681600000     1.2184160000     1.8082300000
   22      H       2.9747810000     1.7310320000    -1.0971140000
 ----------------------------------------------------------------

   11   -1179.5827336766      5.65e-07  Convergence criterion met
 Total energy in the final basis set =    -1179.5827336766
        RIMP2         total energy =     -1181.5869872978 a.u.

                    Orbital Energies (a.u.)
 --------------------------------------------------------------

 Alpha MOs
 -- Occupied --
-91.9788 -91.9742 -11.2888 -11.2814 -11.2640 -11.2572 -11.2557 -11.2540
-11.2377 -11.2341 -11.2315 -11.2189  -8.9810  -8.9745  -6.6613  -6.6608
 -6.6604  -6.6555  -6.6549  -6.6543  -1.1928  -1.1442  -1.0475  -1.0239
 -0.9968  -0.9513  -0.9093  -0.8959  -0.7918  -0.7627  -0.7292  -0.6953
 -0.6540  -0.6220  -0.5902  -0.5839  -0.5762  -0.5682  -0.5485  -0.5396
 -0.5241  -0.5214  -0.5110  -0.4951  -0.4658  -0.4482  -0.4438  -0.3614
 -0.3372  -0.3268  -0.2674

          Ground-State Mulliken Net Atomic Charges

     Atom                 Charge (a.u.)
  ----------------------------------------
      1 C                    -0.236024
      2 C                    -0.255584
      3 C                    -0.005575
      4 H                     0.183716
      5 C                     0.014677
      6 S                    -0.016994
      7 C                    -0.266848
      8 H                     0.097474
      9 H                     0.107848
     10 H                     0.108607
     11 H                     0.199300
     12 C                    -0.131630
     13 C                    -0.093648
     14 C                    -0.022695
     15 H                     0.191836
     16 C                    -0.186424
     17 S                     0.057196
     18 C                    -0.265472
     19 H                     0.103848
     20 H                     0.107229
     21 H                     0.105474
     22 H                     0.203689
  ----------------------------------------
  Sum of atomic charges =     0.000000

                    Cartesian Multipole Moments
 -----------------------------------------------------------------
    Charge (ESU x 10^10)
                -0.0000
    Dipole Moment (Debye)
         X       3.9348      Y       1.1879      Z       0.2013
       Tot       4.1151
    Quadrupole Moments (Debye-Ang)
        XX     -80.5830     XY       4.1941     YY     -82.4774
        XZ      -2.4827     YZ       2.3686     ZZ     -81.8739

 Total job time:  53.31s(wall), 1891.38s(cpu)
        *  Thank you very much for using Q-Chem.  Have a nice day.  *
