 Q-Chem 5.4, Q-Chem, Inc., Pleasanton, CA (2021)
 Q-Chem 5.4.0 for Intel X86 EM64T Linux

User input:
--------------------------------------------------------------
$molecule
0 1
C	0.361285	-3.887800	0.627947
C	-0.331462	-3.701456	-0.572038
C	-0.542953	-2.345170	-0.939610
H	-0.684893	-4.545233	-1.183405
C	0.000000	-1.450135	0.000000
S	0.763441	-2.321334	1.323052
C	-1.265941	-1.934439	-2.192207
H	-1.598695	-2.819799	-2.767709
H	-0.620770	-1.326210	-2.860100
H	-2.166438	-1.325374	-1.967682
H	0.652645	-4.815326	1.133436
C	0.000000	0.000000	0.000000
C	0.729909	0.424971	1.113020
C	1.932179	1.124518	0.820578
H	0.394478	0.229765	2.142881
C	2.146756	1.249161	-0.563588
S	0.838724	0.488500	-1.464748
C	2.852364	1.659924	1.882380
H	2.465145	1.434710	2.894974
H	2.970621	2.761183	1.808137
H	3.868160	1.218416	1.808230
H	2.974781	1.731032	-1.097114
$end

$rem
JOBTYPE		SP
EXCHANGE	HF
CORRELATION	pRIMP2
BASIS		cc-pvtz
METHOD		rimp2
AUX_BASIS	rimp2-cc-pvtz
SOLVENT_METHOD	PCM
PURECART	11111
SYMMETRY	false
MEM_TOTAL	110000
SCF_CONVERGENCE = 6
THRESH=10
GUI = 2
$end

$solvent
dielectric 4.90
$end
--------------------------------------------------------------

             Standard Nuclear Orientation (Angstroms)
    I     Atom           X                Y                Z
 ----------------------------------------------------------------
    1      C       0.3612850000    -3.8878000000     0.6279470000
    2      C      -0.3314620000    -3.7014560000    -0.5720380000
    3      C      -0.5429530000    -2.3451700000    -0.9396100000
    4      H      -0.6848930000    -4.5452330000    -1.1834050000
    5      C       0.0000000000    -1.4501350000     0.0000000000
    6      S       0.7634410000    -2.3213340000     1.3230520000
    7      C      -1.2659410000    -1.9344390000    -2.1922070000
    8      H      -1.5986950000    -2.8197990000    -2.7677090000
    9      H      -0.6207700000    -1.3262100000    -2.8601000000
   10      H      -2.1664380000    -1.3253740000    -1.9676820000
   11      H       0.6526450000    -4.8153260000     1.1334360000
   12      C       0.0000000000     0.0000000000     0.0000000000
   13      C       0.7299090000     0.4249710000     1.1130200000
   14      C       1.9321790000     1.1245180000     0.8205780000
   15      H       0.3944780000     0.2297650000     2.1428810000
   16      C       2.1467560000     1.2491610000    -0.5635880000
   17      S       0.8387240000     0.4885000000    -1.4647480000
   18      C       2.8523640000     1.6599240000     1.8823800000
   19      H       2.4651450000     1.4347100000     2.8949740000
   20      H       2.9706210000     2.7611830000     1.8081370000
   21      H       3.8681600000     1.2184160000     1.8082300000
   22      H       2.9747810000     1.7310320000    -1.0971140000
 ----------------------------------------------------------------

   10   -1179.6160030287      9.14e-07  Convergence criterion met
 Total energy in the final basis set =    -1179.6160030287
        RIMP2         total energy =     -1181.6120139697 a.u.

                    Orbital Energies (a.u.)
 --------------------------------------------------------------

 Alpha MOs
 -- Occupied --
-91.9861 -91.9782 -11.2932 -11.2767 -11.2648 -11.2568 -11.2568 -11.2565
-11.2374 -11.2327 -11.2321 -11.2248  -8.9866  -8.9783  -6.6674  -6.6665
 -6.6662  -6.6592  -6.6585  -6.6579  -1.1935  -1.1451  -1.0471  -1.0209
 -1.0026  -0.9471  -0.9152  -0.8913  -0.7966  -0.7660  -0.7277  -0.6885
 -0.6559  -0.6225  -0.5902  -0.5809  -0.5746  -0.5695  -0.5494  -0.5354
 -0.5296  -0.5144  -0.5064  -0.4958  -0.4688  -0.4656  -0.4510  -0.3585
 -0.3470  -0.3352  -0.2667

          Ground-State Mulliken Net Atomic Charges

     Atom                 Charge (a.u.)
  ----------------------------------------
      1 C                    -0.261272
      2 C                    -0.234778
      3 C                    -0.001181
      4 H                     0.182294
      5 C                     0.017514
      6 S                    -0.000744
      7 C                    -0.304176
      8 H                     0.109029
      9 H                     0.106005
     10 H                     0.110250
     11 H                     0.199581
     12 C                    -0.126072
     13 C                    -0.146491
     14 C                     0.000279
     15 H                     0.200986
     16 C                    -0.171250
     17 S                     0.058098
     18 C                    -0.265829
     19 H                     0.104870
     20 H                     0.110039
     21 H                     0.108097
     22 H                     0.204751
  ----------------------------------------
  Sum of atomic charges =     0.000000

                    Cartesian Multipole Moments
 -----------------------------------------------------------------
    Charge (ESU x 10^10)
                -0.0000
    Dipole Moment (Debye)
         X       2.2542      Y       1.2565      Z       0.3731
       Tot       2.6076
    Quadrupole Moments (Debye-Ang)
        XX     -81.1859     XY       7.1908     YY     -80.9816
        XZ       3.1233     YZ       2.8000     ZZ     -81.2471

 Total job time:  48.30s(wall), 1725.84s(cpu)
        *  Thank you very much for using Q-Chem.  Have a nice day.  *
