 Q-Chem 5.4, Q-Chem, Inc., Pleasanton, CA (2021)
 Q-Chem 5.4.0 for Intel X86 EM64T Linux

User input:
--------------------------------------------------------------
$molecule
0 1
C	-0.124726	-3.887800	-0.713644
C	0.115824	-3.701456	0.650907
C	0.188844	-2.345170	1.068646
H	0.238841	-4.545233	1.346284
C	0.000000	-1.450135	0.000000
S	-0.264890	-2.321334	-1.504375
C	0.439816	-1.934439	2.492978
H	0.555669	-2.819799	3.147582
H	-0.394879	-1.326210	2.899931
H	1.362799	-1.325374	2.589982
H	-0.225628	-4.815326	-1.288299
C	0.000000	0.000000	0.000000
C	0.143630	0.832309	1.113020
C	0.380550	2.202961	0.820578
H	0.077556	0.449877	2.142881
C	0.422995	2.447456	-0.563588
S	0.164909	0.956502	-1.464748
C	0.561888	3.252016	1.882380
H	0.485513	2.810624	2.894974
H	-0.205711	4.050482	1.808137
H	1.553045	3.746365	1.808230
H	0.586105	3.391501	-1.097114
$end

$rem
JOBTYPE		SP
EXCHANGE	HF
CORRELATION	pRIMP2
BASIS		cc-pvtz
METHOD		rimp2
AUX_BASIS	rimp2-cc-pvtz
SOLVENT_METHOD	PCM
PURECART	11111
SYMMETRY	false
MEM_TOTAL	110000
SCF_CONVERGENCE = 6
THRESH=10
GUI = 2
$end

$solvent
dielectric 4.90
$end
--------------------------------------------------------------

             Standard Nuclear Orientation (Angstroms)
    I     Atom           X                Y                Z
 ----------------------------------------------------------------
    1      C      -0.1247260000    -3.8878000000    -0.7136440000
    2      C       0.1158240000    -3.7014560000     0.6509070000
    3      C       0.1888440000    -2.3451700000     1.0686460000
    4      H       0.2388410000    -4.5452330000     1.3462840000
    5      C       0.0000000000    -1.4501350000     0.0000000000
    6      S      -0.2648900000    -2.3213340000    -1.5043750000
    7      C       0.4398160000    -1.9344390000     2.4929780000
    8      H       0.5556690000    -2.8197990000     3.1475820000
    9      H      -0.3948790000    -1.3262100000     2.8999310000
   10      H       1.3627990000    -1.3253740000     2.5899820000
   11      H      -0.2256280000    -4.8153260000    -1.2882990000
   12      C       0.0000000000     0.0000000000     0.0000000000
   13      C       0.1436300000     0.8323090000     1.1130200000
   14      C       0.3805500000     2.2029610000     0.8205780000
   15      H       0.0775560000     0.4498770000     2.1428810000
   16      C       0.4229950000     2.4474560000    -0.5635880000
   17      S       0.1649090000     0.9565020000    -1.4647480000
   18      C       0.5618880000     3.2520160000     1.8823800000
   19      H       0.4855130000     2.8106240000     2.8949740000
   20      H      -0.2057110000     4.0504820000     1.8081370000
   21      H       1.5530450000     3.7463650000     1.8082300000
   22      H       0.5861050000     3.3915010000    -1.0971140000
 ----------------------------------------------------------------

   10   -1179.6830517427      5.08e-07  Convergence criterion met
 Total energy in the final basis set =    -1179.6830517427
        RIMP2         total energy =     -1181.6635819775 a.u.

                    Orbital Energies (a.u.)
 --------------------------------------------------------------

 Alpha MOs
 -- Occupied --
-91.9859 -91.9857 -11.2837 -11.2795 -11.2731 -11.2647 -11.2539 -11.2522
-11.2444 -11.2389 -11.2317 -11.2295  -8.9856  -8.9856  -6.6666  -6.6665
 -6.6660  -6.6660  -6.6654  -6.6653  -1.1812  -1.1505  -1.0412  -1.0280
 -0.9957  -0.9558  -0.9152  -0.8950  -0.8022  -0.7565  -0.7270  -0.7016
 -0.6618  -0.6147  -0.5918  -0.5824  -0.5702  -0.5631  -0.5514  -0.5403
 -0.5297  -0.5233  -0.5032  -0.4923  -0.4881  -0.4763  -0.4520  -0.3693
 -0.3473  -0.3380  -0.2699

          Ground-State Mulliken Net Atomic Charges

     Atom                 Charge (a.u.)
  ----------------------------------------
      1 C                    -0.212568
      2 C                    -0.253635
      3 C                     0.071534
      4 H                     0.185401
      5 C                    -0.048351
      6 S                     0.010372
      7 C                    -0.312688
      8 H                     0.119338
      9 H                     0.105819
     10 H                     0.114673
     11 H                     0.207090
     12 C                     0.037448
     13 C                    -0.257128
     14 C                     0.031998
     15 H                     0.196396
     16 C                    -0.254474
     17 S                     0.010876
     18 C                    -0.270991
     19 H                     0.101366
     20 H                     0.108569
     21 H                     0.109032
     22 H                     0.199922
  ----------------------------------------
  Sum of atomic charges =     0.000000

                    Cartesian Multipole Moments
 -----------------------------------------------------------------
    Charge (ESU x 10^10)
                -0.0000
    Dipole Moment (Debye)
         X       0.5877      Y       0.1255      Z       2.9747
       Tot       3.0348
    Quadrupole Moments (Debye-Ang)
        XX     -92.2657     XY       1.4522     YY     -68.6181
        XZ       1.3738     YZ      -1.1534     ZZ     -80.2210

 Total job time:  68.38s(wall), 1875.90s(cpu)
        *  Thank you very much for using Q-Chem.  Have a nice day.  *
