 Q-Chem 5.4, Q-Chem, Inc., Pleasanton, CA (2021)
 Q-Chem 5.4.0 for Intel X86 EM64T Linux

User input:
--------------------------------------------------------------
$molecule
0 1
C	0.681143	-3.887800	-0.246754
C	-0.620906	-3.701456	0.227093
C	-1.019618	-2.345170	0.371543
H	-1.284357	-4.545233	0.468992
C	0.000000	-1.450135	0.000000
S	1.435522	-2.321334	-0.522097
C	-2.378731	-1.934439	0.866035
H	-3.003272	-2.819799	1.093799
H	-2.924444	-1.326210	0.114688
H	-2.313987	-1.325374	1.791841
H	1.229547	-4.815326	-0.445911
C	0.000000	0.000000	0.000000
C	0.729909	0.424971	1.113020
C	1.932179	1.124518	0.820578
H	0.394478	0.229765	2.142881
C	2.146756	1.249161	-0.563588
S	0.838724	0.488500	-1.464748
C	2.852364	1.659924	1.882380
H	2.465145	1.434710	2.894974
H	2.970621	2.761183	1.808137
H	3.868160	1.218416	1.808230
H	2.974781	1.731032	-1.097114
$end

$rem
JOBTYPE		SP
EXCHANGE	HF
CORRELATION	pRIMP2
BASIS		cc-pvtz
METHOD		rimp2
AUX_BASIS	rimp2-cc-pvtz
SOLVENT_METHOD	PCM
PURECART	11111
SYMMETRY	false
MEM_TOTAL	110000
SCF_CONVERGENCE = 6
THRESH=10
GUI = 2
$end

$solvent
dielectric 4.90
$end
--------------------------------------------------------------

             Standard Nuclear Orientation (Angstroms)
    I     Atom           X                Y                Z
 ----------------------------------------------------------------
    1      C       0.6811430000    -3.8878000000    -0.2467540000
    2      C      -0.6209060000    -3.7014560000     0.2270930000
    3      C      -1.0196180000    -2.3451700000     0.3715430000
    4      H      -1.2843570000    -4.5452330000     0.4689920000
    5      C       0.0000000000    -1.4501350000     0.0000000000
    6      S       1.4355220000    -2.3213340000    -0.5220970000
    7      C      -2.3787310000    -1.9344390000     0.8660350000
    8      H      -3.0032720000    -2.8197990000     1.0937990000
    9      H      -2.9244440000    -1.3262100000     0.1146880000
   10      H      -2.3139870000    -1.3253740000     1.7918410000
   11      H       1.2295470000    -4.8153260000    -0.4459110000
   12      C       0.0000000000     0.0000000000     0.0000000000
   13      C       0.7299090000     0.4249710000     1.1130200000
   14      C       1.9321790000     1.1245180000     0.8205780000
   15      H       0.3944780000     0.2297650000     2.1428810000
   16      C       2.1467560000     1.2491610000    -0.5635880000
   17      S       0.8387240000     0.4885000000    -1.4647480000
   18      C       2.8523640000     1.6599240000     1.8823800000
   19      H       2.4651450000     1.4347100000     2.8949740000
   20      H       2.9706210000     2.7611830000     1.8081370000
   21      H       3.8681600000     1.2184160000     1.8082300000
   22      H       2.9747810000     1.7310320000    -1.0971140000
 ----------------------------------------------------------------

   10   -1179.6143315779      8.82e-07  Convergence criterion met
 Total energy in the final basis set =    -1179.6143315779
        RIMP2         total energy =     -1181.6079774067 a.u.

                    Orbital Energies (a.u.)
 --------------------------------------------------------------

 Alpha MOs
 -- Occupied --
-91.9832 -91.9737 -11.2918 -11.2722 -11.2665 -11.2604 -11.2540 -11.2517
-11.2359 -11.2346 -11.2315 -11.2242  -8.9840  -8.9741  -6.6647  -6.6639
 -6.6636  -6.6550  -6.6544  -6.6538  -1.1914  -1.1441  -1.0459  -1.0165
 -0.9995  -0.9520  -0.9101  -0.8902  -0.7976  -0.7471  -0.7413  -0.6904
 -0.6545  -0.6225  -0.5884  -0.5793  -0.5680  -0.5668  -0.5475  -0.5346
 -0.5325  -0.5152  -0.5067  -0.4890  -0.4730  -0.4595  -0.4510  -0.3647
 -0.3344  -0.3174  -0.2827

          Ground-State Mulliken Net Atomic Charges

     Atom                 Charge (a.u.)
  ----------------------------------------
      1 C                    -0.241444
      2 C                    -0.245554
      3 C                     0.023834
      4 H                     0.180708
      5 C                    -0.039595
      6 S                     0.013962
      7 C                    -0.285536
      8 H                     0.104903
      9 H                     0.107390
     10 H                     0.103857
     11 H                     0.200447
     12 C                    -0.128910
     13 C                    -0.084361
     14 C                    -0.021036
     15 H                     0.189649
     16 C                    -0.167794
     17 S                     0.035857
     18 C                    -0.267040
     19 H                     0.103429
     20 H                     0.108018
     21 H                     0.106482
     22 H                     0.202734
  ----------------------------------------
  Sum of atomic charges =     0.000000

                    Cartesian Multipole Moments
 -----------------------------------------------------------------
    Charge (ESU x 10^10)
                -0.0000
    Dipole Moment (Debye)
         X       1.6196      Y       1.0794      Z       2.1343
       Tot       2.8885
    Quadrupole Moments (Debye-Ang)
        XX     -77.8424     XY       7.9179     YY     -80.8154
        XZ      -1.2640     YZ      -0.2698     ZZ     -84.8490

 Total job time:  51.31s(wall), 1858.01s(cpu)
        *  Thank you very much for using Q-Chem.  Have a nice day.  *
