 Q-Chem 5.4, Q-Chem, Inc., Pleasanton, CA (2021)
 Q-Chem 5.4.0 for Intel X86 EM64T Linux

User input:
--------------------------------------------------------------
$molecule
0 1
C	-0.724460	-3.887800	-0.001092
C	0.661131	-3.701456	-0.001036
C	1.085203	-2.345170	-0.000406
H	1.367305	-4.545233	-0.001433
C	0.000000	-1.450135	0.000000
S	-1.527517	-2.321334	-0.000367
C	2.531478	-1.934439	-0.000233
H	3.196254	-2.819799	-0.000656
H	2.787305	-1.326210	0.892447
H	2.787282	-1.325374	-0.892350
H	-1.307907	-4.815326	-0.001511
C	0.000000	0.000000	0.000000
C	0.285976	0.794723	1.113020
C	0.757308	2.103412	0.820578
H	0.154498	0.429575	2.142881
C	0.841565	2.336821	-0.563588
S	0.328498	0.913334	-1.464748
C	1.118059	3.105040	1.882380
H	0.966197	2.683616	2.894974
H	0.500773	4.024668	1.808137
H	2.180000	3.419766	1.808230
H	1.166129	3.238200	-1.097114
$end

$rem
JOBTYPE		SP
EXCHANGE	HF
CORRELATION	pRIMP2
BASIS		cc-pvtz
METHOD		rimp2
AUX_BASIS	rimp2-cc-pvtz
SOLVENT_METHOD	PCM
PURECART	11111
SYMMETRY	false
MEM_TOTAL	110000
SCF_CONVERGENCE = 6
THRESH=10
GUI = 2
$end

$solvent
dielectric 4.90
$end
--------------------------------------------------------------

             Standard Nuclear Orientation (Angstroms)
    I     Atom           X                Y                Z
 ----------------------------------------------------------------
    1      C      -0.7244600000    -3.8878000000    -0.0010920000
    2      C       0.6611310000    -3.7014560000    -0.0010360000
    3      C       1.0852030000    -2.3451700000    -0.0004060000
    4      H       1.3673050000    -4.5452330000    -0.0014330000
    5      C       0.0000000000    -1.4501350000     0.0000000000
    6      S      -1.5275170000    -2.3213340000    -0.0003670000
    7      C       2.5314780000    -1.9344390000    -0.0002330000
    8      H       3.1962540000    -2.8197990000    -0.0006560000
    9      H       2.7873050000    -1.3262100000     0.8924470000
   10      H       2.7872820000    -1.3253740000    -0.8923500000
   11      H      -1.3079070000    -4.8153260000    -0.0015110000
   12      C       0.0000000000     0.0000000000     0.0000000000
   13      C       0.2859760000     0.7947230000     1.1130200000
   14      C       0.7573080000     2.1034120000     0.8205780000
   15      H       0.1544980000     0.4295750000     2.1428810000
   16      C       0.8415650000     2.3368210000    -0.5635880000
   17      S       0.3284980000     0.9133340000    -1.4647480000
   18      C       1.1180590000     3.1050400000     1.8823800000
   19      H       0.9661970000     2.6836160000     2.8949740000
   20      H       0.5007730000     4.0246680000     1.8081370000
   21      H       2.1800000000     3.4197660000     1.8082300000
   22      H       1.1661290000     3.2382000000    -1.0971140000
 ----------------------------------------------------------------

   10   -1179.6786465468      5.39e-07  Convergence criterion met
 Total energy in the final basis set =    -1179.6786465468
        RIMP2         total energy =     -1181.6588930229 a.u.

                    Orbital Energies (a.u.)
 --------------------------------------------------------------

 Alpha MOs
 -- Occupied --
-91.9854 -91.9834 -11.2759 -11.2734 -11.2713 -11.2679 -11.2527 -11.2513
-11.2443 -11.2416 -11.2295 -11.2283  -8.9849  -8.9830  -6.6657  -6.6652
 -6.6646  -6.6639  -6.6634  -6.6628  -1.1784  -1.1493  -1.0397  -1.0216
 -0.9970  -0.9540  -0.9129  -0.8922  -0.7986  -0.7531  -0.7310  -0.6952
 -0.6610  -0.6168  -0.5816  -0.5796  -0.5717  -0.5689  -0.5510  -0.5305
 -0.5289  -0.5200  -0.5095  -0.4918  -0.4841  -0.4638  -0.4616  -0.3443
 -0.3405  -0.3131  -0.3104

          Ground-State Mulliken Net Atomic Charges

     Atom                 Charge (a.u.)
  ----------------------------------------
      1 C                    -0.214897
      2 C                    -0.250134
      3 C                     0.066969
      4 H                     0.184838
      5 C                    -0.037420
      6 S                     0.026799
      7 C                    -0.281793
      8 H                     0.109158
      9 H                     0.109894
     10 H                     0.111471
     11 H                     0.203306
     12 C                    -0.047029
     13 C                    -0.234106
     14 C                     0.027576
     15 H                     0.185819
     16 C                    -0.235771
     17 S                     0.027997
     18 C                    -0.270223
     19 H                     0.102982
     20 H                     0.108298
     21 H                     0.107582
     22 H                     0.198683
  ----------------------------------------
  Sum of atomic charges =     0.000000

                    Cartesian Multipole Moments
 -----------------------------------------------------------------
    Charge (ESU x 10^10)
                -0.0000
    Dipole Moment (Debye)
         X       2.2329      Y       0.3883      Z       1.5013
       Tot       2.7186
    Quadrupole Moments (Debye-Ang)
        XX     -85.0026     XY       1.2236     YY     -70.3306
        XZ       0.3647     YZ       1.0640     ZZ     -86.6593

 Total job time:  52.06s(wall), 1769.05s(cpu)
        *  Thank you very much for using Q-Chem.  Have a nice day.  *
