 Q-Chem 5.4, Q-Chem, Inc., Pleasanton, CA (2021)
 Q-Chem 5.4.0 for Intel X86 EM64T Linux

User input:
--------------------------------------------------------------
$molecule
0 1
C	0.124726	-3.887800	0.713644
C	-0.115824	-3.701456	-0.650907
C	-0.188844	-2.345170	-1.068646
H	-0.238841	-4.545233	-1.346284
C	-0.000000	-1.450135	-0.000000
S	0.264890	-2.321334	1.504375
C	-0.439816	-1.934439	-2.492978
H	-0.555669	-2.819799	-3.147582
H	0.394879	-1.326210	-2.899931
H	-1.362799	-1.325374	-2.589982
H	0.225628	-4.815326	1.288299
C	0.000000	0.000000	0.000000
C	0.215623	0.816623	1.113020
C	0.571102	2.161411	0.820578
H	0.116470	0.441406	2.142881
C	0.634696	2.401276	-0.563588
S	0.247646	0.938489	-1.464748
C	0.843182	3.190669	1.882380
H	0.728628	2.757614	2.894974
H	0.148095	4.052998	1.808137
H	1.873652	3.596752	1.808230
H	0.879464	3.327513	-1.097114
$end

$rem
JOBTYPE		SP
EXCHANGE	HF
CORRELATION	pRIMP2
BASIS		cc-pvtz
METHOD		rimp2
AUX_BASIS	rimp2-cc-pvtz
SOLVENT_METHOD	PCM
PURECART	11111
SYMMETRY	false
MEM_TOTAL	110000
SCF_CONVERGENCE = 6
THRESH=10
GUI = 2
$end

$solvent
dielectric 4.90
$end
--------------------------------------------------------------

             Standard Nuclear Orientation (Angstroms)
    I     Atom           X                Y                Z
 ----------------------------------------------------------------
    1      C       0.1247260000    -3.8878000000     0.7136440000
    2      C      -0.1158240000    -3.7014560000    -0.6509070000
    3      C      -0.1888440000    -2.3451700000    -1.0686460000
    4      H      -0.2388410000    -4.5452330000    -1.3462840000
    5      C       0.0000000000    -1.4501350000     0.0000000000
    6      S       0.2648900000    -2.3213340000     1.5043750000
    7      C      -0.4398160000    -1.9344390000    -2.4929780000
    8      H      -0.5556690000    -2.8197990000    -3.1475820000
    9      H       0.3948790000    -1.3262100000    -2.8999310000
   10      H      -1.3627990000    -1.3253740000    -2.5899820000
   11      H       0.2256280000    -4.8153260000     1.2882990000
   12      C       0.0000000000     0.0000000000     0.0000000000
   13      C       0.2156230000     0.8166230000     1.1130200000
   14      C       0.5711020000     2.1614110000     0.8205780000
   15      H       0.1164700000     0.4414060000     2.1428810000
   16      C       0.6346960000     2.4012760000    -0.5635880000
   17      S       0.2476460000     0.9384890000    -1.4647480000
   18      C       0.8431820000     3.1906690000     1.8823800000
   19      H       0.7286280000     2.7576140000     2.8949740000
   20      H       0.1480950000     4.0529980000     1.8081370000
   21      H       1.8736520000     3.5967520000     1.8082300000
   22      H       0.8794640000     3.3275130000    -1.0971140000
 ----------------------------------------------------------------

   10   -1179.6826200185      5.28e-07  Convergence criterion met
 Total energy in the final basis set =    -1179.6826200185
        RIMP2         total energy =     -1181.6637497286 a.u.

                    Orbital Energies (a.u.)
 --------------------------------------------------------------

 Alpha MOs
 -- Occupied --
-91.9854 -91.9854 -11.2834 -11.2787 -11.2727 -11.2634 -11.2528 -11.2525
-11.2436 -11.2401 -11.2300 -11.2291  -8.9852  -8.9852  -6.6662  -6.6661
 -6.6656  -6.6655  -6.6650  -6.6649  -1.1812  -1.1501  -1.0416  -1.0254
 -0.9987  -0.9523  -0.9148  -0.8954  -0.7994  -0.7651  -0.7196  -0.6955
 -0.6630  -0.6162  -0.5839  -0.5819  -0.5776  -0.5697  -0.5527  -0.5337
 -0.5232  -0.5205  -0.5109  -0.4975  -0.4896  -0.4679  -0.4512  -0.3693
 -0.3435  -0.3407  -0.2691

          Ground-State Mulliken Net Atomic Charges

     Atom                 Charge (a.u.)
  ----------------------------------------
      1 C                    -0.212043
      2 C                    -0.254163
      3 C                     0.052264
      4 H                     0.185607
      5 C                    -0.025204
      6 S                     0.007816
      7 C                    -0.322645
      8 H                     0.117602
      9 H                     0.113273
     10 H                     0.119376
     11 H                     0.206869
     12 C                     0.062189
     13 C                    -0.292341
     14 C                     0.047881
     15 H                     0.176512
     16 C                    -0.261906
     17 S                     0.029352
     18 C                    -0.269685
     19 H                     0.102905
     20 H                     0.108316
     21 H                     0.109094
     22 H                     0.198931
  ----------------------------------------
  Sum of atomic charges =     0.000000

                    Cartesian Multipole Moments
 -----------------------------------------------------------------
    Charge (ESU x 10^10)
                -0.0000
    Dipole Moment (Debye)
         X       0.2078      Y       0.1043      Z      -0.1219
       Tot       0.2625
    Quadrupole Moments (Debye-Ang)
        XX     -91.8639     XY       3.1158     YY     -69.3560
        XZ       1.4691     YZ       3.4978     ZZ     -79.9806

 Total job time:  53.16s(wall), 1772.96s(cpu)
        *  Thank you very much for using Q-Chem.  Have a nice day.  *
