 Q-Chem 5.4, Q-Chem, Inc., Pleasanton, CA (2021)
 Q-Chem 5.4.0 for Intel X86 EM64T Linux

User input:
--------------------------------------------------------------
$molecule
0 1
C	-0.361285	-3.887800	-0.627947
C	0.331462	-3.701456	0.572038
C	0.542953	-2.345170	0.939610
H	0.684893	-4.545233	1.183405
C	-0.000000	-1.450135	-0.000000
S	-0.763441	-2.321334	-1.323052
C	1.265941	-1.934439	2.192207
H	1.598695	-2.819799	2.767709
H	0.620770	-1.326210	2.860100
H	2.166438	-1.325374	1.967682
H	-0.652645	-4.815326	-1.133436
C	0.000000	0.000000	0.000000
C	0.540541	0.648986	1.113020
C	1.431046	1.717546	0.820578
H	0.292104	0.350827	2.142881
C	1.590053	1.908061	-0.563588
S	0.621066	0.745901	-1.464748
C	2.112618	2.535384	1.882380
H	1.825779	2.191315	2.894974
H	1.847090	3.610676	1.808137
H	3.218159	2.467925	1.808230
H	2.203332	2.644073	-1.097114
$end

$rem
JOBTYPE		SP
EXCHANGE	HF
CORRELATION	pRIMP2
BASIS		cc-pvtz
METHOD		rimp2
AUX_BASIS	rimp2-cc-pvtz
SOLVENT_METHOD	PCM
PURECART	11111
SYMMETRY	false
MEM_TOTAL	110000
SCF_CONVERGENCE = 6
THRESH=10
GUI = 2
$end

$solvent
dielectric 4.90
$end
--------------------------------------------------------------

             Standard Nuclear Orientation (Angstroms)
    I     Atom           X                Y                Z
 ----------------------------------------------------------------
    1      C      -0.3612850000    -3.8878000000    -0.6279470000
    2      C       0.3314620000    -3.7014560000     0.5720380000
    3      C       0.5429530000    -2.3451700000     0.9396100000
    4      H       0.6848930000    -4.5452330000     1.1834050000
    5      C       0.0000000000    -1.4501350000     0.0000000000
    6      S      -0.7634410000    -2.3213340000    -1.3230520000
    7      C       1.2659410000    -1.9344390000     2.1922070000
    8      H       1.5986950000    -2.8197990000     2.7677090000
    9      H       0.6207700000    -1.3262100000     2.8601000000
   10      H       2.1664380000    -1.3253740000     1.9676820000
   11      H      -0.6526450000    -4.8153260000    -1.1334360000
   12      C       0.0000000000     0.0000000000     0.0000000000
   13      C       0.5405410000     0.6489860000     1.1130200000
   14      C       1.4310460000     1.7175460000     0.8205780000
   15      H       0.2921040000     0.3508270000     2.1428810000
   16      C       1.5900530000     1.9080610000    -0.5635880000
   17      S       0.6210660000     0.7459010000    -1.4647480000
   18      C       2.1126180000     2.5353840000     1.8823800000
   19      H       1.8257790000     2.1913150000     2.8949740000
   20      H       1.8470900000     3.6106760000     1.8081370000
   21      H       3.2181590000     2.4679250000     1.8082300000
   22      H       2.2033320000     2.6440730000    -1.0971140000
 ----------------------------------------------------------------

   10   -1179.6515985819      7.37e-07  Convergence criterion met
 Total energy in the final basis set =    -1179.6515985819
        RIMP2         total energy =     -1181.6401202996 a.u.

                    Orbital Energies (a.u.)
 --------------------------------------------------------------

 Alpha MOs
 -- Occupied --
-91.9836 -91.9795 -11.2776 -11.2757 -11.2703 -11.2677 -11.2531 -11.2489
-11.2474 -11.2412 -11.2308 -11.2287  -8.9837  -8.9797  -6.6646  -6.6640
 -6.6634  -6.6607  -6.6601  -6.6595  -1.1837  -1.1484  -1.0427  -1.0251
 -0.9956  -0.9540  -0.9140  -0.8939  -0.7979  -0.7546  -0.7309  -0.7016
 -0.6574  -0.6162  -0.5938  -0.5823  -0.5707  -0.5606  -0.5494  -0.5401
 -0.5278  -0.5233  -0.5058  -0.4906  -0.4772  -0.4687  -0.4533  -0.3596
 -0.3446  -0.3378  -0.2715

          Ground-State Mulliken Net Atomic Charges

     Atom                 Charge (a.u.)
  ----------------------------------------
      1 C                    -0.216919
      2 C                    -0.254534
      3 C                     0.052157
      4 H                     0.184560
      5 C                    -0.019576
      6 S                     0.003616
      7 C                    -0.302464
      8 H                     0.115563
      9 H                     0.100977
     10 H                     0.117472
     11 H                     0.203938
     12 C                    -0.032073
     13 C                    -0.254804
     14 C                     0.041718
     15 H                     0.198671
     16 C                    -0.223311
     17 S                     0.032793
     18 C                    -0.270661
     19 H                     0.102897
     20 H                     0.111361
     21 H                     0.108149
     22 H                     0.200469
  ----------------------------------------
  Sum of atomic charges =     0.000000

                    Cartesian Multipole Moments
 -----------------------------------------------------------------
    Charge (ESU x 10^10)
                -0.0000
    Dipole Moment (Debye)
         X       2.3821      Y       0.6547      Z       2.9735
       Tot       3.8659
    Quadrupole Moments (Debye-Ang)
        XX     -86.2014     XY       4.6452     YY     -74.4168
        XZ       3.3986     YZ      -1.2229     ZZ     -81.7942

 Total job time:  56.21s(wall), 2053.94s(cpu)
        *  Thank you very much for using Q-Chem.  Have a nice day.  *
