 Q-Chem 5.4, Q-Chem, Inc., Pleasanton, CA (2021)
 Q-Chem 5.4.0 for Intel X86 EM64T Linux

User input:
--------------------------------------------------------------
$molecule
0 1
C	-0.680396	-3.887800	-0.248806
C	0.621614	-3.701456	0.225147
C	1.019896	-2.345170	0.370780
H	1.285337	-4.545233	0.466300
C	0.000000	-1.450135	0.000000
S	-1.435271	-2.321334	-0.522786
C	2.378891	-1.934439	0.865597
H	3.003720	-2.819799	1.092567
H	2.313975	-1.326210	1.791940
H	2.924390	-1.325374	0.114772
H	-1.228514	-4.815326	-0.448750
C	0.000000	0.000000	0.000000
C	0.143630	0.832309	1.113020
C	0.380550	2.202961	0.820578
H	0.077556	0.449877	2.142881
C	0.422995	2.447456	-0.563588
S	0.164909	0.956502	-1.464748
C	0.561888	3.252016	1.882380
H	0.485513	2.810624	2.894974
H	-0.205711	4.050482	1.808137
H	1.553045	3.746365	1.808230
H	0.586105	3.391501	-1.097114
$end

$rem
JOBTYPE		SP
EXCHANGE	HF
CORRELATION	pRIMP2
BASIS		cc-pvtz
METHOD		rimp2
AUX_BASIS	rimp2-cc-pvtz
SOLVENT_METHOD	PCM
PURECART	11111
SYMMETRY	false
MEM_TOTAL	110000
SCF_CONVERGENCE = 6
THRESH=10
GUI = 2
$end

$solvent
dielectric 4.90
$end
--------------------------------------------------------------

             Standard Nuclear Orientation (Angstroms)
    I     Atom           X                Y                Z
 ----------------------------------------------------------------
    1      C      -0.6803960000    -3.8878000000    -0.2488060000
    2      C       0.6216140000    -3.7014560000     0.2251470000
    3      C       1.0198960000    -2.3451700000     0.3707800000
    4      H       1.2853370000    -4.5452330000     0.4663000000
    5      C       0.0000000000    -1.4501350000     0.0000000000
    6      S      -1.4352710000    -2.3213340000    -0.5227860000
    7      C       2.3788910000    -1.9344390000     0.8655970000
    8      H       3.0037200000    -2.8197990000     1.0925670000
    9      H       2.3139750000    -1.3262100000     1.7919400000
   10      H       2.9243900000    -1.3253740000     0.1147720000
   11      H      -1.2285140000    -4.8153260000    -0.4487500000
   12      C       0.0000000000     0.0000000000     0.0000000000
   13      C       0.1436300000     0.8323090000     1.1130200000
   14      C       0.3805500000     2.2029610000     0.8205780000
   15      H       0.0775560000     0.4498770000     2.1428810000
   16      C       0.4229950000     2.4474560000    -0.5635880000
   17      S       0.1649090000     0.9565020000    -1.4647480000
   18      C       0.5618880000     3.2520160000     1.8823800000
   19      H       0.4855130000     2.8106240000     2.8949740000
   20      H      -0.2057110000     4.0504820000     1.8081370000
   21      H       1.5530450000     3.7463650000     1.8082300000
   22      H       0.5861050000     3.3915010000    -1.0971140000
 ----------------------------------------------------------------

   10   -1179.6845387555      5.24e-07  Convergence criterion met
 Total energy in the final basis set =    -1179.6845387555
        RIMP2         total energy =     -1181.6629809979 a.u.

                    Orbital Energies (a.u.)
 --------------------------------------------------------------

 Alpha MOs
 -- Occupied --
-91.9856 -91.9846 -11.2786 -11.2740 -11.2728 -11.2655 -11.2540 -11.2512
-11.2424 -11.2418 -11.2293 -11.2290  -8.9851  -8.9843  -6.6660  -6.6654
 -6.6652  -6.6648  -6.6646  -6.6640  -1.1781  -1.1496  -1.0394  -1.0230
 -0.9964  -0.9546  -0.9129  -0.8927  -0.7999  -0.7525  -0.7310  -0.6958
 -0.6618  -0.6163  -0.5830  -0.5798  -0.5706  -0.5673  -0.5514  -0.5318
 -0.5291  -0.5204  -0.5077  -0.4921  -0.4873  -0.4655  -0.4616  -0.3455
 -0.3393  -0.3294  -0.2968

          Ground-State Mulliken Net Atomic Charges

     Atom                 Charge (a.u.)
  ----------------------------------------
      1 C                    -0.213624
      2 C                    -0.249412
      3 C                     0.055321
      4 H                     0.185300
      5 C                    -0.040798
      6 S                     0.025963
      7 C                    -0.281811
      8 H                     0.109750
      9 H                     0.109087
     10 H                     0.113208
     11 H                     0.204192
     12 C                    -0.025375
     13 C                    -0.233658
     14 C                     0.020988
     15 H                     0.188627
     16 C                    -0.239502
     17 S                     0.025315
     18 C                    -0.271161
     19 H                     0.102606
     20 H                     0.108507
     21 H                     0.107881
     22 H                     0.198599
  ----------------------------------------
  Sum of atomic charges =     0.000000

                    Cartesian Multipole Moments
 -----------------------------------------------------------------
    Charge (ESU x 10^10)
                -0.0000
    Dipole Moment (Debye)
         X       1.7718      Y       0.2510      Z       2.0127
       Tot       2.6932
    Quadrupole Moments (Debye-Ang)
        XX     -86.6284     XY      -0.2723     YY     -69.0447
        XZ       2.3158     YZ       0.3391     ZZ     -85.9794

 Total job time:  55.26s(wall), 1834.93s(cpu)
        *  Thank you very much for using Q-Chem.  Have a nice day.  *
