 Q-Chem 5.4, Q-Chem, Inc., Pleasanton, CA (2021)
 Q-Chem 5.4.0 for Intel X86 EM64T Linux

User input:
--------------------------------------------------------------
$molecule
0 1
C	-0.713644	-3.887800	0.124726
C	0.650907	-3.701456	-0.115824
C	1.068646	-2.345170	-0.188844
H	1.346284	-4.545233	-0.238841
C	0.000000	-1.450135	0.000000
S	-1.504375	-2.321334	0.264890
C	2.492978	-1.934439	-0.439816
H	3.147582	-2.819799	-0.555669
H	2.899931	-1.326210	0.394879
H	2.589982	-1.325374	-1.362799
H	-1.288299	-4.815326	0.225628
C	0.000000	0.000000	0.000000
C	0.285976	0.794723	1.113020
C	0.757308	2.103412	0.820578
H	0.154498	0.429575	2.142881
C	0.841565	2.336821	-0.563588
S	0.328498	0.913334	-1.464748
C	1.118059	3.105040	1.882380
H	0.966197	2.683616	2.894974
H	0.500773	4.024668	1.808137
H	2.180000	3.419766	1.808230
H	1.166129	3.238200	-1.097114
$end

$rem
JOBTYPE		SP
EXCHANGE	HF
CORRELATION	pRIMP2
BASIS		cc-pvtz
METHOD		rimp2
AUX_BASIS	rimp2-cc-pvtz
SOLVENT_METHOD	PCM
PURECART	11111
SYMMETRY	false
MEM_TOTAL	110000
SCF_CONVERGENCE = 6
THRESH=10
GUI = 2
$end

$solvent
dielectric 4.90
$end
--------------------------------------------------------------

             Standard Nuclear Orientation (Angstroms)
    I     Atom           X                Y                Z
 ----------------------------------------------------------------
    1      C      -0.7136440000    -3.8878000000     0.1247260000
    2      C       0.6509070000    -3.7014560000    -0.1158240000
    3      C       1.0686460000    -2.3451700000    -0.1888440000
    4      H       1.3462840000    -4.5452330000    -0.2388410000
    5      C       0.0000000000    -1.4501350000     0.0000000000
    6      S      -1.5043750000    -2.3213340000     0.2648900000
    7      C       2.4929780000    -1.9344390000    -0.4398160000
    8      H       3.1475820000    -2.8197990000    -0.5556690000
    9      H       2.8999310000    -1.3262100000     0.3948790000
   10      H       2.5899820000    -1.3253740000    -1.3627990000
   11      H      -1.2882990000    -4.8153260000     0.2256280000
   12      C       0.0000000000     0.0000000000     0.0000000000
   13      C       0.2859760000     0.7947230000     1.1130200000
   14      C       0.7573080000     2.1034120000     0.8205780000
   15      H       0.1544980000     0.4295750000     2.1428810000
   16      C       0.8415650000     2.3368210000    -0.5635880000
   17      S       0.3284980000     0.9133340000    -1.4647480000
   18      C       1.1180590000     3.1050400000     1.8823800000
   19      H       0.9661970000     2.6836160000     2.8949740000
   20      H       0.5007730000     4.0246680000     1.8081370000
   21      H       2.1800000000     3.4197660000     1.8082300000
   22      H       1.1661290000     3.2382000000    -1.0971140000
 ----------------------------------------------------------------

   10   -1179.6784350863      5.31e-07  Convergence criterion met
 Total energy in the final basis set =    -1179.6784350863
        RIMP2         total energy =     -1181.6588176517 a.u.

                    Orbital Energies (a.u.)
 --------------------------------------------------------------

 Alpha MOs
 -- Occupied --
-91.9854 -91.9836 -11.2763 -11.2738 -11.2710 -11.2680 -11.2521 -11.2514
-11.2445 -11.2416 -11.2295 -11.2279  -8.9849  -8.9832  -6.6658  -6.6652
 -6.6647  -6.6641  -6.6635  -6.6630  -1.1785  -1.1493  -1.0398  -1.0213
 -0.9973  -0.9539  -0.9129  -0.8922  -0.7985  -0.7544  -0.7299  -0.6951
 -0.6610  -0.6168  -0.5815  -0.5792  -0.5722  -0.5694  -0.5510  -0.5306
 -0.5285  -0.5197  -0.5098  -0.4921  -0.4839  -0.4644  -0.4607  -0.3446
 -0.3415  -0.3200  -0.3027

          Ground-State Mulliken Net Atomic Charges

     Atom                 Charge (a.u.)
  ----------------------------------------
      1 C                    -0.215773
      2 C                    -0.250177
      3 C                     0.062446
      4 H                     0.184863
      5 C                    -0.033741
      6 S                     0.026279
      7 C                    -0.282587
      8 H                     0.108977
      9 H                     0.110472
     10 H                     0.111217
     11 H                     0.203324
     12 C                    -0.048367
     13 C                    -0.227756
     14 C                     0.023740
     15 H                     0.185671
     16 C                    -0.233430
     17 S                     0.027630
     18 C                    -0.270270
     19 H                     0.103040
     20 H                     0.108287
     21 H                     0.107605
     22 H                     0.198550
  ----------------------------------------
  Sum of atomic charges =     0.000000

                    Cartesian Multipole Moments
 -----------------------------------------------------------------
    Charge (ESU x 10^10)
                -0.0000
    Dipole Moment (Debye)
         X       2.2053      Y       0.4174      Z       1.2252
       Tot       2.5570
    Quadrupole Moments (Debye-Ang)
        XX     -85.2233     XY       1.2851     YY     -70.4391
        XZ      -0.7708     YZ       1.4738     ZZ     -86.4302

 Total job time:  51.27s(wall), 1763.82s(cpu)
        *  Thank you very much for using Q-Chem.  Have a nice day.  *
