 Q-Chem 5.4, Q-Chem, Inc., Pleasanton, CA (2021)
 Q-Chem 5.4.0 for Intel X86 EM64T Linux

User input:
--------------------------------------------------------------
$molecule
0 1
C	0.627947	-3.887800	-0.361285
C	-0.572038	-3.701456	0.331462
C	-0.939610	-2.345170	0.542953
H	-1.183405	-4.545233	0.684893
C	-0.000000	-1.450135	-0.000000
S	1.323052	-2.321334	-0.763441
C	-2.192207	-1.934439	1.265941
H	-2.767709	-2.819799	1.598695
H	-2.860100	-1.326210	0.620770
H	-1.967682	-1.325374	2.166438
H	1.133436	-4.815326	-0.652645
C	0.000000	0.000000	0.000000
C	0.540541	0.648986	1.113020
C	1.431046	1.717546	0.820578
H	0.292104	0.350827	2.142881
C	1.590053	1.908061	-0.563588
S	0.621066	0.745901	-1.464748
C	2.112618	2.535384	1.882380
H	1.825779	2.191315	2.894974
H	1.847090	3.610676	1.808137
H	3.218159	2.467925	1.808230
H	2.203332	2.644073	-1.097114
$end

$rem
JOBTYPE		SP
EXCHANGE	HF
CORRELATION	pRIMP2
BASIS		cc-pvtz
METHOD		rimp2
AUX_BASIS	rimp2-cc-pvtz
SOLVENT_METHOD	PCM
PURECART	11111
SYMMETRY	false
MEM_TOTAL	110000
SCF_CONVERGENCE = 6
THRESH=10
GUI = 2
$end

$solvent
dielectric 4.90
$end
--------------------------------------------------------------

             Standard Nuclear Orientation (Angstroms)
    I     Atom           X                Y                Z
 ----------------------------------------------------------------
    1      C       0.6279470000    -3.8878000000    -0.3612850000
    2      C      -0.5720380000    -3.7014560000     0.3314620000
    3      C      -0.9396100000    -2.3451700000     0.5429530000
    4      H      -1.1834050000    -4.5452330000     0.6848930000
    5      C       0.0000000000    -1.4501350000     0.0000000000
    6      S       1.3230520000    -2.3213340000    -0.7634410000
    7      C      -2.1922070000    -1.9344390000     1.2659410000
    8      H      -2.7677090000    -2.8197990000     1.5986950000
    9      H      -2.8601000000    -1.3262100000     0.6207700000
   10      H      -1.9676820000    -1.3253740000     2.1664380000
   11      H       1.1334360000    -4.8153260000    -0.6526450000
   12      C       0.0000000000     0.0000000000     0.0000000000
   13      C       0.5405410000     0.6489860000     1.1130200000
   14      C       1.4310460000     1.7175460000     0.8205780000
   15      H       0.2921040000     0.3508270000     2.1428810000
   16      C       1.5900530000     1.9080610000    -0.5635880000
   17      S       0.6210660000     0.7459010000    -1.4647480000
   18      C       2.1126180000     2.5353840000     1.8823800000
   19      H       1.8257790000     2.1913150000     2.8949740000
   20      H       1.8470900000     3.6106760000     1.8081370000
   21      H       3.2181590000     2.4679250000     1.8082300000
   22      H       2.2033320000     2.6440730000    -1.0971140000
 ----------------------------------------------------------------

   10   -1179.6558664562      6.13e-07  Convergence criterion met
 Total energy in the final basis set =    -1179.6558664562
        RIMP2         total energy =     -1181.6412188985 a.u.

                    Orbital Energies (a.u.)
 --------------------------------------------------------------

 Alpha MOs
 -- Occupied --
-91.9854 -91.9813 -11.2765 -11.2744 -11.2693 -11.2649 -11.2534 -11.2522
-11.2428 -11.2389 -11.2304 -11.2269  -8.9853  -8.9810  -6.6662  -6.6655
 -6.6651  -6.6619  -6.6613  -6.6607  -1.1828  -1.1477  -1.0423  -1.0201
 -0.9968  -0.9543  -0.9106  -0.8923  -0.7992  -0.7492  -0.7350  -0.6939
 -0.6581  -0.6177  -0.5856  -0.5795  -0.5692  -0.5669  -0.5500  -0.5337
 -0.5310  -0.5176  -0.5083  -0.4900  -0.4757  -0.4684  -0.4585  -0.3575
 -0.3381  -0.3281  -0.2832

          Ground-State Mulliken Net Atomic Charges

     Atom                 Charge (a.u.)
  ----------------------------------------
      1 C                    -0.227410
      2 C                    -0.248684
      3 C                     0.032950
      4 H                     0.182454
      5 C                    -0.035326
      6 S                     0.025154
      7 C                    -0.287856
      8 H                     0.106754
      9 H                     0.109154
     10 H                     0.105546
     11 H                     0.202142
     12 C                    -0.057301
     13 C                    -0.162627
     14 C                     0.002637
     15 H                     0.189277
     16 C                    -0.203438
     17 S                     0.016697
     18 C                    -0.268575
     19 H                     0.102709
     20 H                     0.108047
     21 H                     0.107543
     22 H                     0.200154
  ----------------------------------------
  Sum of atomic charges =     0.000000

                    Cartesian Multipole Moments
 -----------------------------------------------------------------
    Charge (ESU x 10^10)
                -0.0000
    Dipole Moment (Debye)
         X       0.4164      Y       0.8898      Z       2.2893
       Tot       2.4912
    Quadrupole Moments (Debye-Ang)
        XX     -83.2272     XY       7.7692     YY     -75.0943
        XZ      -2.0230     YZ      -0.3782     ZZ     -84.6838

 Total job time:  51.16s(wall), 1742.28s(cpu)
        *  Thank you very much for using Q-Chem.  Have a nice day.  *
