 Q-Chem 5.4, Q-Chem, Inc., Pleasanton, CA (2021)
 Q-Chem 5.4.0 for Intel X86 EM64T Linux

User input:
--------------------------------------------------------------
$molecule
0 1
C	-0.124726	-3.887800	-0.713644
C	0.115824	-3.701456	0.650907
C	0.188844	-2.345170	1.068646
H	0.238841	-4.545233	1.346284
C	0.000000	-1.450135	0.000000
S	-0.264890	-2.321334	-1.504375
C	0.439816	-1.934439	2.492978
H	0.555669	-2.819799	3.147582
H	-0.394879	-1.326210	2.899931
H	1.362799	-1.325374	2.589982
H	-0.225628	-4.815326	-1.288299
C	0.000000	0.000000	0.000000
C	0.645024	0.545262	1.113020
C	1.707554	1.442954	0.820578
H	0.348587	0.294774	2.142881
C	1.897227	1.602964	-0.563588
S	0.741155	0.626722	-1.464748
C	2.520787	2.130014	1.882380
H	2.178559	1.840981	2.894974
H	2.446016	3.235078	1.808137
H	3.597818	1.871604	1.808230
H	2.628997	2.221299	-1.097114
$end

$rem
JOBTYPE		SP
EXCHANGE	HF
CORRELATION	pRIMP2
BASIS		cc-pvtz
METHOD		rimp2
AUX_BASIS	rimp2-cc-pvtz
SOLVENT_METHOD	PCM
PURECART	11111
SYMMETRY	false
MEM_TOTAL	110000
SCF_CONVERGENCE = 6
THRESH=10
GUI = 2
$end

$solvent
dielectric 4.90
$end
--------------------------------------------------------------

             Standard Nuclear Orientation (Angstroms)
    I     Atom           X                Y                Z
 ----------------------------------------------------------------
    1      C      -0.1247260000    -3.8878000000    -0.7136440000
    2      C       0.1158240000    -3.7014560000     0.6509070000
    3      C       0.1888440000    -2.3451700000     1.0686460000
    4      H       0.2388410000    -4.5452330000     1.3462840000
    5      C       0.0000000000    -1.4501350000     0.0000000000
    6      S      -0.2648900000    -2.3213340000    -1.5043750000
    7      C       0.4398160000    -1.9344390000     2.4929780000
    8      H       0.5556690000    -2.8197990000     3.1475820000
    9      H      -0.3948790000    -1.3262100000     2.8999310000
   10      H       1.3627990000    -1.3253740000     2.5899820000
   11      H      -0.2256280000    -4.8153260000    -1.2882990000
   12      C       0.0000000000     0.0000000000     0.0000000000
   13      C       0.6450240000     0.5452620000     1.1130200000
   14      C       1.7075540000     1.4429540000     0.8205780000
   15      H       0.3485870000     0.2947740000     2.1428810000
   16      C       1.8972270000     1.6029640000    -0.5635880000
   17      S       0.7411550000     0.6267220000    -1.4647480000
   18      C       2.5207870000     2.1300140000     1.8823800000
   19      H       2.1785590000     1.8409810000     2.8949740000
   20      H       2.4460160000     3.2350780000     1.8081370000
   21      H       3.5978180000     1.8716040000     1.8082300000
   22      H       2.6289970000     2.2212990000    -1.0971140000
 ----------------------------------------------------------------

   11   -1179.6293279144      5.20e-07  Convergence criterion met
 Total energy in the final basis set =    -1179.6293279144
        RIMP2         total energy =     -1181.6225174421 a.u.

                    Orbital Energies (a.u.)
 --------------------------------------------------------------

 Alpha MOs
 -- Occupied --
-91.9838 -91.9766 -11.2841 -11.2796 -11.2656 -11.2615 -11.2558 -11.2542
-11.2404 -11.2391 -11.2318 -11.2289  -8.9844  -8.9771  -6.6652  -6.6645
 -6.6640  -6.6580  -6.6574  -6.6568  -1.1883  -1.1470  -1.0452  -1.0263
 -0.9957  -0.9538  -0.9138  -0.8949  -0.7983  -0.7562  -0.7299  -0.7031
 -0.6549  -0.6166  -0.5976  -0.5841  -0.5705  -0.5596  -0.5498  -0.5422
 -0.5310  -0.5216  -0.5036  -0.4887  -0.4798  -0.4666  -0.4470  -0.3677
 -0.3491  -0.3320  -0.2643

          Ground-State Mulliken Net Atomic Charges

     Atom                 Charge (a.u.)
  ----------------------------------------
      1 C                    -0.235329
      2 C                    -0.248864
      3 C                     0.037708
      4 H                     0.183192
      5 C                    -0.023006
      6 S                    -0.002670
      7 C                    -0.299799
      8 H                     0.115004
      9 H                     0.101757
     10 H                     0.107057
     11 H                     0.202348
     12 C                    -0.060936
     13 C                    -0.183541
     14 C                     0.009865
     15 H                     0.205163
     16 C                    -0.193738
     17 S                     0.032044
     18 C                    -0.272284
     19 H                     0.102483
     20 H                     0.112075
     21 H                     0.108482
     22 H                     0.202991
  ----------------------------------------
  Sum of atomic charges =     0.000000

                    Cartesian Multipole Moments
 -----------------------------------------------------------------
    Charge (ESU x 10^10)
                -0.0000
    Dipole Moment (Debye)
         X       2.5334      Y       1.1021      Z       3.1389
       Tot       4.1815
    Quadrupole Moments (Debye-Ang)
        XX     -85.0649     XY       5.7672     YY     -78.0354
        XZ       1.7072     YZ      -1.7781     ZZ     -80.2394

 Total job time:  58.30s(wall), 1945.09s(cpu)
        *  Thank you very much for using Q-Chem.  Have a nice day.  *
