 Q-Chem 5.4, Q-Chem, Inc., Pleasanton, CA (2021)
 Q-Chem 5.4.0 for Intel X86 EM64T Linux

User input:
--------------------------------------------------------------
$molecule
0 1
C	0.713264	-3.887800	0.126876
C	-0.651267	-3.701456	-0.113784
C	-1.068787	-2.345170	-0.188043
H	-1.346782	-4.545233	-0.236019
C	0.000000	-1.450135	0.000000
S	1.504247	-2.321334	0.265612
C	-2.493059	-1.934439	-0.439357
H	-3.147809	-2.819799	-0.554378
H	-2.589987	-1.326210	-1.362899
H	-2.899892	-1.325374	0.394786
H	1.287774	-4.815326	0.228603
C	0.000000	0.000000	0.000000
C	0.729909	0.424971	1.113020
C	1.932179	1.124518	0.820578
H	0.394478	0.229765	2.142881
C	2.146756	1.249161	-0.563588
S	0.838724	0.488500	-1.464748
C	2.852364	1.659924	1.882380
H	2.465145	1.434710	2.894974
H	2.970621	2.761183	1.808137
H	3.868160	1.218416	1.808230
H	2.974781	1.731032	-1.097114
$end

$rem
JOBTYPE		SP
EXCHANGE	HF
CORRELATION	pRIMP2
BASIS		cc-pvtz
METHOD		rimp2
AUX_BASIS	rimp2-cc-pvtz
SOLVENT_METHOD	PCM
PURECART	11111
SYMMETRY	false
MEM_TOTAL	110000
SCF_CONVERGENCE = 6
THRESH=10
GUI = 2
$end

$solvent
dielectric 4.90
$end
--------------------------------------------------------------

             Standard Nuclear Orientation (Angstroms)
    I     Atom           X                Y                Z
 ----------------------------------------------------------------
    1      C       0.7132640000    -3.8878000000     0.1268760000
    2      C      -0.6512670000    -3.7014560000    -0.1137840000
    3      C      -1.0687870000    -2.3451700000    -0.1880430000
    4      H      -1.3467820000    -4.5452330000    -0.2360190000
    5      C       0.0000000000    -1.4501350000     0.0000000000
    6      S       1.5042470000    -2.3213340000     0.2656120000
    7      C      -2.4930590000    -1.9344390000    -0.4393570000
    8      H      -3.1478090000    -2.8197990000    -0.5543780000
    9      H      -2.5899870000    -1.3262100000    -1.3628990000
   10      H      -2.8998920000    -1.3253740000     0.3947860000
   11      H       1.2877740000    -4.8153260000     0.2286030000
   12      C       0.0000000000     0.0000000000     0.0000000000
   13      C       0.7299090000     0.4249710000     1.1130200000
   14      C       1.9321790000     1.1245180000     0.8205780000
   15      H       0.3944780000     0.2297650000     2.1428810000
   16      C       2.1467560000     1.2491610000    -0.5635880000
   17      S       0.8387240000     0.4885000000    -1.4647480000
   18      C       2.8523640000     1.6599240000     1.8823800000
   19      H       2.4651450000     1.4347100000     2.8949740000
   20      H       2.9706210000     2.7611830000     1.8081370000
   21      H       3.8681600000     1.2184160000     1.8082300000
   22      H       2.9747810000     1.7310320000    -1.0971140000
 ----------------------------------------------------------------

   10   -1179.6177338306      7.84e-07  Convergence criterion met
 Total energy in the final basis set =    -1179.6177338306
        RIMP2         total energy =     -1181.6106072351 a.u.

                    Orbital Energies (a.u.)
 --------------------------------------------------------------

 Alpha MOs
 -- Occupied --
-91.9821 -91.9747 -11.2909 -11.2700 -11.2645 -11.2642 -11.2541 -11.2489
-11.2392 -11.2359 -11.2313 -11.2246  -8.9826  -8.9751  -6.6634  -6.6625
 -6.6622  -6.6560  -6.6554  -6.6548  -1.1903  -1.1449  -1.0450  -1.0165
 -1.0010  -0.9492  -0.9129  -0.8897  -0.7958  -0.7521  -0.7387  -0.6879
 -0.6558  -0.6229  -0.5870  -0.5797  -0.5691  -0.5681  -0.5476  -0.5347
 -0.5302  -0.5147  -0.5070  -0.4907  -0.4671  -0.4616  -0.4542  -0.3602
 -0.3299  -0.3178  -0.2914

          Ground-State Mulliken Net Atomic Charges

     Atom                 Charge (a.u.)
  ----------------------------------------
      1 C                    -0.227625
      2 C                    -0.248536
      3 C                     0.044371
      4 H                     0.181145
      5 C                    -0.048023
      6 S                     0.006210
      7 C                    -0.284410
      8 H                     0.105848
      9 H                     0.107484
     10 H                     0.107777
     11 H                     0.201657
     12 C                    -0.125707
     13 C                    -0.135551
     14 C                    -0.013414
     15 H                     0.190203
     16 C                    -0.161442
     17 S                     0.043644
     18 C                    -0.267025
     19 H                     0.103982
     20 H                     0.109531
     21 H                     0.106845
     22 H                     0.203036
  ----------------------------------------
  Sum of atomic charges =     0.000000

                    Cartesian Multipole Moments
 -----------------------------------------------------------------
    Charge (ESU x 10^10)
                -0.0000
    Dipole Moment (Debye)
         X       1.4274      Y       0.7456      Z       1.4210
       Tot       2.1477
    Quadrupole Moments (Debye-Ang)
        XX     -77.2262     XY       8.1026     YY     -79.5534
        XZ       1.6289     YZ       1.0900     ZZ     -85.5801

 Total job time:  48.36s(wall), 1724.84s(cpu)
        *  Thank you very much for using Q-Chem.  Have a nice day.  *
