 Q-Chem 5.4, Q-Chem, Inc., Pleasanton, CA (2021)
 Q-Chem 5.4.0 for Intel X86 EM64T Linux

User input:
--------------------------------------------------------------
$molecule
0 1
C	0.124726	-3.887800	0.713644
C	-0.115824	-3.701456	-0.650907
C	-0.188844	-2.345170	-1.068646
H	-0.238841	-4.545233	-1.346284
C	0.000000	-1.450135	0.000000
S	0.264890	-2.321334	1.504375
C	-0.439816	-1.934439	-2.492978
H	-0.555669	-2.819799	-3.147582
H	0.394879	-1.326210	-2.899931
H	-1.362799	-1.325374	-2.589982
H	0.225628	-4.815326	1.288299
C	0.000000	0.000000	0.000000
C	0.285976	0.794723	1.113020
C	0.757308	2.103412	0.820578
H	0.154498	0.429575	2.142881
C	0.841565	2.336821	-0.563588
S	0.328498	0.913334	-1.464748
C	1.118059	3.105040	1.882380
H	0.966197	2.683616	2.894974
H	0.500773	4.024668	1.808137
H	2.180000	3.419766	1.808230
H	1.166129	3.238200	-1.097114
$end

$rem
JOBTYPE		SP
EXCHANGE	HF
CORRELATION	pRIMP2
BASIS		cc-pvtz
METHOD		rimp2
AUX_BASIS	rimp2-cc-pvtz
SOLVENT_METHOD	PCM
PURECART	11111
SYMMETRY	false
MEM_TOTAL	110000
SCF_CONVERGENCE = 6
THRESH=10
GUI = 2
$end

$solvent
dielectric 4.90
$end
--------------------------------------------------------------

             Standard Nuclear Orientation (Angstroms)
    I     Atom           X                Y                Z
 ----------------------------------------------------------------
    1      C       0.1247260000    -3.8878000000     0.7136440000
    2      C      -0.1158240000    -3.7014560000    -0.6509070000
    3      C      -0.1888440000    -2.3451700000    -1.0686460000
    4      H      -0.2388410000    -4.5452330000    -1.3462840000
    5      C       0.0000000000    -1.4501350000     0.0000000000
    6      S       0.2648900000    -2.3213340000     1.5043750000
    7      C      -0.4398160000    -1.9344390000    -2.4929780000
    8      H      -0.5556690000    -2.8197990000    -3.1475820000
    9      H       0.3948790000    -1.3262100000    -2.8999310000
   10      H      -1.3627990000    -1.3253740000    -2.5899820000
   11      H       0.2256280000    -4.8153260000     1.2882990000
   12      C       0.0000000000     0.0000000000     0.0000000000
   13      C       0.2859760000     0.7947230000     1.1130200000
   14      C       0.7573080000     2.1034120000     0.8205780000
   15      H       0.1544980000     0.4295750000     2.1428810000
   16      C       0.8415650000     2.3368210000    -0.5635880000
   17      S       0.3284980000     0.9133340000    -1.4647480000
   18      C       1.1180590000     3.1050400000     1.8823800000
   19      H       0.9661970000     2.6836160000     2.8949740000
   20      H       0.5007730000     4.0246680000     1.8081370000
   21      H       2.1800000000     3.4197660000     1.8082300000
   22      H       1.1661290000     3.2382000000    -1.0971140000
 ----------------------------------------------------------------

   10   -1179.6790575403      5.17e-07  Convergence criterion met
 Total energy in the final basis set =    -1179.6790575403
        RIMP2         total energy =     -1181.6611839922 a.u.

                    Orbital Energies (a.u.)
 --------------------------------------------------------------

 Alpha MOs
 -- Occupied --
-91.9853 -91.9848 -11.2823 -11.2785 -11.2718 -11.2648 -11.2528 -11.2516
-11.2432 -11.2413 -11.2296 -11.2292  -8.9851  -8.9847  -6.6660  -6.6656
 -6.6655  -6.6651  -6.6648  -6.6644  -1.1815  -1.1499  -1.0418  -1.0251
 -0.9988  -0.9521  -0.9146  -0.8954  -0.7990  -0.7651  -0.7199  -0.6953
 -0.6625  -0.6164  -0.5837  -0.5819  -0.5779  -0.5698  -0.5525  -0.5337
 -0.5232  -0.5204  -0.5111  -0.4975  -0.4883  -0.4676  -0.4509  -0.3690
 -0.3434  -0.3407  -0.2687

          Ground-State Mulliken Net Atomic Charges

     Atom                 Charge (a.u.)
  ----------------------------------------
      1 C                    -0.213707
      2 C                    -0.252676
      3 C                     0.050437
      4 H                     0.185392
      5 C                    -0.025297
      6 S                     0.006841
      7 C                    -0.322077
      8 H                     0.117064
      9 H                     0.113189
     10 H                     0.119152
     11 H                     0.206408
     12 C                     0.057130
     13 C                    -0.291022
     14 C                     0.049411
     15 H                     0.177086
     16 C                    -0.259723
     17 S                     0.031839
     18 C                    -0.268825
     19 H                     0.102988
     20 H                     0.108393
     21 H                     0.109038
     22 H                     0.198958
  ----------------------------------------
  Sum of atomic charges =     0.000000

                    Cartesian Multipole Moments
 -----------------------------------------------------------------
    Charge (ESU x 10^10)
                -0.0000
    Dipole Moment (Debye)
         X       0.3933      Y       0.1950      Z      -0.1060
       Tot       0.4516
    Quadrupole Moments (Debye-Ang)
        XX     -91.2962     XY       3.9293     YY     -70.0923
        XZ       1.5400     YZ       3.4726     ZZ     -79.9908

 Total job time:  52.33s(wall), 1731.04s(cpu)
        *  Thank you very much for using Q-Chem.  Have a nice day.  *
