 Q-Chem 5.4, Q-Chem, Inc., Pleasanton, CA (2021)
 Q-Chem 5.4.0 for Intel X86 EM64T Linux

User input:
--------------------------------------------------------------
$molecule
0 1
C	-0.626855	-3.887800	-0.363176
C	0.573074	-3.701456	0.329669
C	0.940016	-2.345170	0.542250
H	1.184837	-4.545233	0.682412
C	0.000000	-1.450135	0.000000
S	-1.322686	-2.321334	-0.764076
C	2.192440	-1.934439	1.265537
H	2.768365	-2.819799	1.597559
H	1.967653	-1.326210	2.166534
H	2.860032	-1.325374	0.620843
H	-1.131925	-4.815326	-0.655262
C	0.000000	0.000000	0.000000
C	0.354153	0.766774	1.113020
C	0.937751	2.029404	0.820578
H	0.191350	0.414475	2.142881
C	1.042030	2.254581	-0.563588
S	0.406851	0.881228	-1.464748
C	1.384426	2.995779	1.882380
H	1.196413	2.589194	2.894974
H	0.849641	3.965707	1.808137
H	2.469756	3.216753	1.808230
H	1.443919	3.124243	-1.097114
$end

$rem
JOBTYPE		SP
EXCHANGE	HF
CORRELATION	pRIMP2
BASIS		cc-pvtz
METHOD		rimp2
AUX_BASIS	rimp2-cc-pvtz
SOLVENT_METHOD	PCM
PURECART	11111
SYMMETRY	false
MEM_TOTAL	110000
SCF_CONVERGENCE = 6
THRESH=10
GUI = 2
$end

$solvent
dielectric 4.90
$end
--------------------------------------------------------------

             Standard Nuclear Orientation (Angstroms)
    I     Atom           X                Y                Z
 ----------------------------------------------------------------
    1      C      -0.6268550000    -3.8878000000    -0.3631760000
    2      C       0.5730740000    -3.7014560000     0.3296690000
    3      C       0.9400160000    -2.3451700000     0.5422500000
    4      H       1.1848370000    -4.5452330000     0.6824120000
    5      C       0.0000000000    -1.4501350000     0.0000000000
    6      S      -1.3226860000    -2.3213340000    -0.7640760000
    7      C       2.1924400000    -1.9344390000     1.2655370000
    8      H       2.7683650000    -2.8197990000     1.5975590000
    9      H       1.9676530000    -1.3262100000     2.1665340000
   10      H       2.8600320000    -1.3253740000     0.6208430000
   11      H      -1.1319250000    -4.8153260000    -0.6552620000
   12      C       0.0000000000     0.0000000000     0.0000000000
   13      C       0.3541530000     0.7667740000     1.1130200000
   14      C       0.9377510000     2.0294040000     0.8205780000
   15      H       0.1913500000     0.4144750000     2.1428810000
   16      C       1.0420300000     2.2545810000    -0.5635880000
   17      S       0.4068510000     0.8812280000    -1.4647480000
   18      C       1.3844260000     2.9957790000     1.8823800000
   19      H       1.1964130000     2.5891940000     2.8949740000
   20      H       0.8496410000     3.9657070000     1.8081370000
   21      H       2.4697560000     3.2167530000     1.8082300000
   22      H       1.4439190000     3.1242430000    -1.0971140000
 ----------------------------------------------------------------

   10   -1179.6750893482      5.60e-07  Convergence criterion met
 Total energy in the final basis set =    -1179.6750893482
        RIMP2         total energy =     -1181.6569312618 a.u.

                    Orbital Energies (a.u.)
 --------------------------------------------------------------

 Alpha MOs
 -- Occupied --
-91.9849 -91.9826 -11.2750 -11.2740 -11.2714 -11.2690 -11.2524 -11.2517
-11.2443 -11.2419 -11.2298 -11.2283  -8.9845  -8.9824  -6.6654  -6.6648
 -6.6642  -6.6633  -6.6628  -6.6622  -1.1794  -1.1492  -1.0402  -1.0226
 -0.9962  -0.9544  -0.9129  -0.8926  -0.7987  -0.7522  -0.7319  -0.6968
 -0.6604  -0.6164  -0.5847  -0.5801  -0.5711  -0.5655  -0.5507  -0.5338
 -0.5280  -0.5214  -0.5086  -0.4916  -0.4821  -0.4657  -0.4597  -0.3439
 -0.3414  -0.3362  -0.2891

          Ground-State Mulliken Net Atomic Charges

     Atom                 Charge (a.u.)
  ----------------------------------------
      1 C                    -0.210725
      2 C                    -0.253322
      3 C                     0.066604
      4 H                     0.184926
      5 C                    -0.036305
      6 S                     0.019265
      7 C                    -0.284035
      8 H                     0.111587
      9 H                     0.107997
     10 H                     0.115714
     11 H                     0.203950
     12 C                    -0.038252
     13 C                    -0.260216
     14 C                     0.041023
     15 H                     0.191965
     16 C                    -0.236994
     17 S                     0.027697
     18 C                    -0.269553
     19 H                     0.102618
     20 H                     0.108854
     21 H                     0.107787
     22 H                     0.199414
  ----------------------------------------
  Sum of atomic charges =     0.000000

                    Cartesian Multipole Moments
 -----------------------------------------------------------------
    Charge (ESU x 10^10)
                -0.0000
    Dipole Moment (Debye)
         X       2.2361      Y       0.3780      Z       2.3110
       Tot       3.2379
    Quadrupole Moments (Debye-Ang)
        XX     -85.9351     XY       2.3052     YY     -70.9330
        XZ       3.2702     YZ      -0.1536     ZZ     -85.0445

 Total job time:  69.04s(wall), 1842.31s(cpu)
        *  Thank you very much for using Q-Chem.  Have a nice day.  *
