 Q-Chem 5.4, Q-Chem, Inc., Pleasanton, CA (2021)
 Q-Chem 5.4.0 for Intel X86 EM64T Linux

User input:
--------------------------------------------------------------
$molecule
0 1
C	0.681143	-3.887800	-0.246754
C	-0.620906	-3.701456	0.227093
C	-1.019618	-2.345170	0.371543
H	-1.284357	-4.545233	0.468992
C	-0.000000	-1.450135	-0.000000
S	1.435522	-2.321334	-0.522097
C	-2.378731	-1.934439	0.866035
H	-3.003272	-2.819799	1.093799
H	-2.924444	-1.326210	0.114688
H	-2.313987	-1.325374	1.791841
H	1.229547	-4.815326	-0.445911
C	0.000000	0.000000	0.000000
C	0.215623	0.816623	1.113020
C	0.571102	2.161411	0.820578
H	0.116470	0.441406	2.142881
C	0.634696	2.401276	-0.563588
S	0.247646	0.938489	-1.464748
C	0.843182	3.190669	1.882380
H	0.728628	2.757614	2.894974
H	0.148095	4.052998	1.808137
H	1.873652	3.596752	1.808230
H	0.879464	3.327513	-1.097114
$end

$rem
JOBTYPE		SP
EXCHANGE	HF
CORRELATION	pRIMP2
BASIS		cc-pvtz
METHOD		rimp2
AUX_BASIS	rimp2-cc-pvtz
SOLVENT_METHOD	PCM
PURECART	11111
SYMMETRY	false
MEM_TOTAL	110000
SCF_CONVERGENCE = 6
THRESH=10
GUI = 2
$end

$solvent
dielectric 4.90
$end
--------------------------------------------------------------

             Standard Nuclear Orientation (Angstroms)
    I     Atom           X                Y                Z
 ----------------------------------------------------------------
    1      C       0.6811430000    -3.8878000000    -0.2467540000
    2      C      -0.6209060000    -3.7014560000     0.2270930000
    3      C      -1.0196180000    -2.3451700000     0.3715430000
    4      H      -1.2843570000    -4.5452330000     0.4689920000
    5      C       0.0000000000    -1.4501350000     0.0000000000
    6      S       1.4355220000    -2.3213340000    -0.5220970000
    7      C      -2.3787310000    -1.9344390000     0.8660350000
    8      H      -3.0032720000    -2.8197990000     1.0937990000
    9      H      -2.9244440000    -1.3262100000     0.1146880000
   10      H      -2.3139870000    -1.3253740000     1.7918410000
   11      H       1.2295470000    -4.8153260000    -0.4459110000
   12      C       0.0000000000     0.0000000000     0.0000000000
   13      C       0.2156230000     0.8166230000     1.1130200000
   14      C       0.5711020000     2.1614110000     0.8205780000
   15      H       0.1164700000     0.4414060000     2.1428810000
   16      C       0.6346960000     2.4012760000    -0.5635880000
   17      S       0.2476460000     0.9384890000    -1.4647480000
   18      C       0.8431820000     3.1906690000     1.8823800000
   19      H       0.7286280000     2.7576140000     2.8949740000
   20      H       0.1480950000     4.0529980000     1.8081370000
   21      H       1.8736520000     3.5967520000     1.8082300000
   22      H       0.8794640000     3.3275130000    -1.0971140000
 ----------------------------------------------------------------

   10   -1179.6820583638      5.07e-07  Convergence criterion met
 Total energy in the final basis set =    -1179.6820583638
        RIMP2         total energy =     -1181.6605076701 a.u.

                    Orbital Energies (a.u.)
 --------------------------------------------------------------

 Alpha MOs
 -- Occupied --
-91.9858 -91.9850 -11.2783 -11.2739 -11.2719 -11.2662 -11.2520 -11.2513
-11.2428 -11.2418 -11.2293 -11.2290  -8.9853  -8.9846  -6.6661  -6.6656
 -6.6654  -6.6650  -6.6649  -6.6643  -1.1784  -1.1495  -1.0396  -1.0229
 -0.9963  -0.9545  -0.9125  -0.8928  -0.8003  -0.7518  -0.7314  -0.6949
 -0.6616  -0.6164  -0.5834  -0.5794  -0.5698  -0.5679  -0.5515  -0.5316
 -0.5300  -0.5195  -0.5073  -0.4917  -0.4866  -0.4670  -0.4614  -0.3496
 -0.3378  -0.3278  -0.2953

          Ground-State Mulliken Net Atomic Charges

     Atom                 Charge (a.u.)
  ----------------------------------------
      1 C                    -0.208447
      2 C                    -0.251516
      3 C                     0.052749
      4 H                     0.184620
      5 C                    -0.056676
      6 S                     0.025231
      7 C                    -0.283740
      8 H                     0.107436
      9 H                     0.111021
     10 H                     0.108248
     11 H                     0.204196
     12 C                    -0.011613
     13 C                    -0.219940
     14 C                     0.017538
     15 H                     0.186539
     16 C                    -0.233990
     17 S                     0.022506
     18 C                    -0.271248
     19 H                     0.102634
     20 H                     0.107879
     21 H                     0.108331
     22 H                     0.198241
  ----------------------------------------
  Sum of atomic charges =     0.000000

                    Cartesian Multipole Moments
 -----------------------------------------------------------------
    Charge (ESU x 10^10)
                -0.0000
    Dipole Moment (Debye)
         X      -0.8993      Y       0.3288      Z       2.0077
       Tot       2.2244
    Quadrupole Moments (Debye-Ang)
        XX     -86.2266     XY       4.7911     YY     -69.6359
        XZ      -1.7958     YZ       0.2946     ZZ     -85.9167

 Total job time:  52.76s(wall), 1946.49s(cpu)
        *  Thank you very much for using Q-Chem.  Have a nice day.  *
