 Q-Chem 5.4, Q-Chem, Inc., Pleasanton, CA (2021)
 Q-Chem 5.4.0 for Intel X86 EM64T Linux

User input:
--------------------------------------------------------------
$molecule
0 1
C	0.713644	-3.887800	-0.124726
C	-0.650907	-3.701456	0.115824
C	-1.068646	-2.345170	0.188844
H	-1.346284	-4.545233	0.238841
C	0.000000	-1.450135	0.000000
S	1.504375	-2.321334	-0.264890
C	-2.492978	-1.934439	0.439816
H	-3.147582	-2.819799	0.555669
H	-2.899931	-1.326210	-0.394879
H	-2.589982	-1.325374	1.362799
H	1.288299	-4.815326	-0.225628
C	0.000000	0.000000	0.000000
C	0.143630	0.832309	1.113020
C	0.380550	2.202961	0.820578
H	0.077556	0.449877	2.142881
C	0.422995	2.447456	-0.563588
S	0.164909	0.956502	-1.464748
C	0.561888	3.252016	1.882380
H	0.485513	2.810624	2.894974
H	-0.205711	4.050482	1.808137
H	1.553045	3.746365	1.808230
H	0.586105	3.391501	-1.097114
$end

$rem
JOBTYPE		SP
EXCHANGE	HF
CORRELATION	pRIMP2
BASIS		cc-pvtz
METHOD		rimp2
AUX_BASIS	rimp2-cc-pvtz
SOLVENT_METHOD	PCM
PURECART	11111
SYMMETRY	false
MEM_TOTAL	110000
SCF_CONVERGENCE = 6
THRESH=10
GUI = 2
$end

$solvent
dielectric 4.90
$end
--------------------------------------------------------------

             Standard Nuclear Orientation (Angstroms)
    I     Atom           X                Y                Z
 ----------------------------------------------------------------
    1      C       0.7136440000    -3.8878000000    -0.1247260000
    2      C      -0.6509070000    -3.7014560000     0.1158240000
    3      C      -1.0686460000    -2.3451700000     0.1888440000
    4      H      -1.3462840000    -4.5452330000     0.2388410000
    5      C       0.0000000000    -1.4501350000     0.0000000000
    6      S       1.5043750000    -2.3213340000    -0.2648900000
    7      C      -2.4929780000    -1.9344390000     0.4398160000
    8      H      -3.1475820000    -2.8197990000     0.5556690000
    9      H      -2.8999310000    -1.3262100000    -0.3948790000
   10      H      -2.5899820000    -1.3253740000     1.3627990000
   11      H       1.2882990000    -4.8153260000    -0.2256280000
   12      C       0.0000000000     0.0000000000     0.0000000000
   13      C       0.1436300000     0.8323090000     1.1130200000
   14      C       0.3805500000     2.2029610000     0.8205780000
   15      H       0.0775560000     0.4498770000     2.1428810000
   16      C       0.4229950000     2.4474560000    -0.5635880000
   17      S       0.1649090000     0.9565020000    -1.4647480000
   18      C       0.5618880000     3.2520160000     1.8823800000
   19      H       0.4855130000     2.8106240000     2.8949740000
   20      H      -0.2057110000     4.0504820000     1.8081370000
   21      H       1.5530450000     3.7463650000     1.8082300000
   22      H       0.5861050000     3.3915010000    -1.0971140000
 ----------------------------------------------------------------

   10   -1179.6841288327      5.08e-07  Convergence criterion met
 Total energy in the final basis set =    -1179.6841288327
        RIMP2         total energy =     -1181.6618727842 a.u.

                    Orbital Energies (a.u.)
 --------------------------------------------------------------

 Alpha MOs
 -- Occupied --
-91.9855 -91.9851 -11.2785 -11.2732 -11.2727 -11.2655 -11.2531 -11.2509
-11.2421 -11.2418 -11.2291 -11.2291  -8.9850  -8.9847  -6.6659  -6.6655
 -6.6654  -6.6650  -6.6647  -6.6644  -1.1779  -1.1495  -1.0392  -1.0229
 -0.9964  -0.9541  -0.9129  -0.8925  -0.8001  -0.7525  -0.7307  -0.6947
 -0.6620  -0.6165  -0.5828  -0.5793  -0.5701  -0.5686  -0.5515  -0.5305
 -0.5301  -0.5195  -0.5070  -0.4920  -0.4879  -0.4653  -0.4626  -0.3478
 -0.3372  -0.3208  -0.3038

          Ground-State Mulliken Net Atomic Charges

     Atom                 Charge (a.u.)
  ----------------------------------------
      1 C                    -0.207895
      2 C                    -0.250863
      3 C                     0.052665
      4 H                     0.184876
      5 C                    -0.058502
      6 S                     0.025199
      7 C                    -0.283079
      8 H                     0.107273
      9 H                     0.110861
     10 H                     0.109085
     11 H                     0.204221
     12 C                    -0.007668
     13 C                    -0.223846
     14 C                     0.018225
     15 H                     0.185253
     16 C                    -0.236994
     17 S                     0.025353
     18 C                    -0.271221
     19 H                     0.102725
     20 H                     0.107807
     21 H                     0.108344
     22 H                     0.198180
  ----------------------------------------
  Sum of atomic charges =     0.000000

                    Cartesian Multipole Moments
 -----------------------------------------------------------------
    Charge (ESU x 10^10)
                -0.0000
    Dipole Moment (Debye)
         X      -1.1570      Y       0.2665      Z       1.7461
       Tot       2.1115
    Quadrupole Moments (Debye-Ang)
        XX     -86.0145     XY       4.0291     YY     -69.0996
        XZ      -0.9136     YZ       0.7109     ZZ     -86.5292

 Total job time:  57.34s(wall), 2095.49s(cpu)
        *  Thank you very much for using Q-Chem.  Have a nice day.  *
