 Q-Chem 5.4, Q-Chem, Inc., Pleasanton, CA (2021)
 Q-Chem 5.4.0 for Intel X86 EM64T Linux

User input:
--------------------------------------------------------------
$molecule
0 1
C	-0.248806	-3.887800	0.680396
C	0.225147	-3.701456	-0.621614
C	0.370780	-2.345170	-1.019896
H	0.466300	-4.545233	-1.285337
C	0.000000	-1.450135	0.000000
S	-0.522786	-2.321334	1.435271
C	0.865597	-1.934439	-2.378891
H	1.092567	-2.819799	-3.003720
H	1.791940	-1.326210	-2.313975
H	0.114772	-1.325374	-2.924390
H	-0.448750	-4.815326	1.228514
C	0.000000	0.000000	0.000000
C	0.645024	0.545262	1.113020
C	1.707554	1.442954	0.820578
H	0.348587	0.294774	2.142881
C	1.897227	1.602964	-0.563588
S	0.741155	0.626722	-1.464748
C	2.520787	2.130014	1.882380
H	2.178559	1.840981	2.894974
H	2.446016	3.235078	1.808137
H	3.597818	1.871604	1.808230
H	2.628997	2.221299	-1.097114
$end

$rem
JOBTYPE		SP
EXCHANGE	HF
CORRELATION	pRIMP2
BASIS		cc-pvtz
METHOD		rimp2
AUX_BASIS	rimp2-cc-pvtz
SOLVENT_METHOD	PCM
PURECART	11111
SYMMETRY	false
MEM_TOTAL	110000
SCF_CONVERGENCE = 6
THRESH=10
GUI = 2
$end

$solvent
dielectric 4.90
$end
--------------------------------------------------------------

             Standard Nuclear Orientation (Angstroms)
    I     Atom           X                Y                Z
 ----------------------------------------------------------------
    1      C      -0.2488060000    -3.8878000000     0.6803960000
    2      C       0.2251470000    -3.7014560000    -0.6216140000
    3      C       0.3707800000    -2.3451700000    -1.0198960000
    4      H       0.4663000000    -4.5452330000    -1.2853370000
    5      C       0.0000000000    -1.4501350000     0.0000000000
    6      S      -0.5227860000    -2.3213340000     1.4352710000
    7      C       0.8655970000    -1.9344390000    -2.3788910000
    8      H       1.0925670000    -2.8197990000    -3.0037200000
    9      H       1.7919400000    -1.3262100000    -2.3139750000
   10      H       0.1147720000    -1.3253740000    -2.9243900000
   11      H      -0.4487500000    -4.8153260000     1.2285140000
   12      C       0.0000000000     0.0000000000     0.0000000000
   13      C       0.6450240000     0.5452620000     1.1130200000
   14      C       1.7075540000     1.4429540000     0.8205780000
   15      H       0.3485870000     0.2947740000     2.1428810000
   16      C       1.8972270000     1.6029640000    -0.5635880000
   17      S       0.7411550000     0.6267220000    -1.4647480000
   18      C       2.5207870000     2.1300140000     1.8823800000
   19      H       2.1785590000     1.8409810000     2.8949740000
   20      H       2.4460160000     3.2350780000     1.8081370000
   21      H       3.5978180000     1.8716040000     1.8082300000
   22      H       2.6289970000     2.2212990000    -1.0971140000
 ----------------------------------------------------------------

   11   -1179.6195317045      5.54e-07  Convergence criterion met
 Total energy in the final basis set =    -1179.6195317045
        RIMP2         total energy =     -1181.6162722762 a.u.

                    Orbital Energies (a.u.)
 --------------------------------------------------------------

 Alpha MOs
 -- Occupied --
-91.9811 -91.9770 -11.2809 -11.2804 -11.2666 -11.2609 -11.2559 -11.2527
-11.2396 -11.2383 -11.2304 -11.2224  -8.9824  -8.9773  -6.6630  -6.6623
 -6.6619  -6.6583  -6.6577  -6.6570  -1.1879  -1.1461  -1.0453  -1.0231
 -0.9975  -0.9509  -0.9104  -0.8964  -0.7934  -0.7649  -0.7240  -0.6947
 -0.6559  -0.6187  -0.5880  -0.5831  -0.5769  -0.5692  -0.5499  -0.5341
 -0.5234  -0.5227  -0.5113  -0.4954  -0.4722  -0.4579  -0.4440  -0.3687
 -0.3393  -0.3333  -0.2641

          Ground-State Mulliken Net Atomic Charges

     Atom                 Charge (a.u.)
  ----------------------------------------
      1 C                    -0.232111
      2 C                    -0.250403
      3 C                     0.019887
      4 H                     0.184251
      5 C                    -0.014421
      6 S                    -0.014786
      7 C                    -0.284411
      8 H                     0.104097
      9 H                     0.116508
     10 H                     0.104853
     11 H                     0.201692
     12 C                    -0.062422
     13 C                    -0.142416
     14 C                    -0.007407
     15 H                     0.184519
     16 C                    -0.204062
     17 S                     0.044484
     18 C                    -0.266136
     19 H                     0.103220
     20 H                     0.107660
     21 H                     0.106099
     22 H                     0.201305
  ----------------------------------------
  Sum of atomic charges =     0.000000

                    Cartesian Multipole Moments
 -----------------------------------------------------------------
    Charge (ESU x 10^10)
                -0.0000
    Dipole Moment (Debye)
         X       2.7903      Y       1.0588      Z      -0.0973
       Tot       2.9860
    Quadrupole Moments (Debye-Ang)
        XX     -84.6460     XY       5.0432     YY     -79.0231
        XZ      -1.6667     YZ       2.8433     ZZ     -80.5209

 Total job time:  55.68s(wall), 1910.29s(cpu)
        *  Thank you very much for using Q-Chem.  Have a nice day.  *
