 Q-Chem 5.4, Q-Chem, Inc., Pleasanton, CA (2021)
 Q-Chem 5.4.0 for Intel X86 EM64T Linux

User input:
--------------------------------------------------------------
$molecule
0 1
C	-0.554267	-3.887800	-0.466510
C	0.507121	-3.701456	0.424173
C	0.831575	-2.345170	0.697244
H	1.048337	-4.545233	0.877789
C	0.000000	-1.450135	0.000000
S	-1.169911	-2.321334	-0.982150
C	1.939374	-1.934439	1.627024
H	2.448894	-2.819799	2.054010
H	1.561545	-1.326210	2.475299
H	2.708773	-1.325374	1.108051
H	-1.000944	-4.815326	-0.841863
C	0.000000	0.000000	0.000000
C	0.729909	0.424971	1.113020
C	1.932179	1.124518	0.820578
H	0.394478	0.229765	2.142881
C	2.146756	1.249161	-0.563588
S	0.838724	0.488500	-1.464748
C	2.852364	1.659924	1.882380
H	2.465145	1.434710	2.894974
H	2.970621	2.761183	1.808137
H	3.868160	1.218416	1.808230
H	2.974781	1.731032	-1.097114
$end

$rem
JOBTYPE		SP
EXCHANGE	HF
CORRELATION	pRIMP2
BASIS		cc-pvtz
METHOD		rimp2
AUX_BASIS	rimp2-cc-pvtz
SOLVENT_METHOD	PCM
PURECART	11111
SYMMETRY	false
MEM_TOTAL	110000
SCF_CONVERGENCE = 6
THRESH=10
GUI = 2
$end

$solvent
dielectric 4.90
$end
--------------------------------------------------------------

             Standard Nuclear Orientation (Angstroms)
    I     Atom           X                Y                Z
 ----------------------------------------------------------------
    1      C      -0.5542670000    -3.8878000000    -0.4665100000
    2      C       0.5071210000    -3.7014560000     0.4241730000
    3      C       0.8315750000    -2.3451700000     0.6972440000
    4      H       1.0483370000    -4.5452330000     0.8777890000
    5      C       0.0000000000    -1.4501350000     0.0000000000
    6      S      -1.1699110000    -2.3213340000    -0.9821500000
    7      C       1.9393740000    -1.9344390000     1.6270240000
    8      H       2.4488940000    -2.8197990000     2.0540100000
    9      H       1.5615450000    -1.3262100000     2.4752990000
   10      H       2.7087730000    -1.3253740000     1.1080510000
   11      H      -1.0009440000    -4.8153260000    -0.8418630000
   12      C       0.0000000000     0.0000000000     0.0000000000
   13      C       0.7299090000     0.4249710000     1.1130200000
   14      C       1.9321790000     1.1245180000     0.8205780000
   15      H       0.3944780000     0.2297650000     2.1428810000
   16      C       2.1467560000     1.2491610000    -0.5635880000
   17      S       0.8387240000     0.4885000000    -1.4647480000
   18      C       2.8523640000     1.6599240000     1.8823800000
   19      H       2.4651450000     1.4347100000     2.8949740000
   20      H       2.9706210000     2.7611830000     1.8081370000
   21      H       3.8681600000     1.2184160000     1.8082300000
   22      H       2.9747810000     1.7310320000    -1.0971140000
 ----------------------------------------------------------------

   11   -1179.6094967403      4.77e-07  Convergence criterion met
 Total energy in the final basis set =    -1179.6094967403
        RIMP2         total energy =     -1181.6079444554 a.u.

                    Orbital Energies (a.u.)
 --------------------------------------------------------------

 Alpha MOs
 -- Occupied --
-91.9818 -91.9737 -11.2897 -11.2760 -11.2648 -11.2626 -11.2538 -11.2518
-11.2411 -11.2380 -11.2327 -11.2252  -8.9824  -8.9740  -6.6632  -6.6624
 -6.6620  -6.6550  -6.6544  -6.6538  -1.1917  -1.1453  -1.0462  -1.0236
 -0.9972  -0.9519  -0.9147  -0.8918  -0.7942  -0.7532  -0.7387  -0.7007
 -0.6533  -0.6206  -0.5938  -0.5867  -0.5673  -0.5630  -0.5483  -0.5396
 -0.5268  -0.5236  -0.5097  -0.4874  -0.4709  -0.4594  -0.4502  -0.3510
 -0.3381  -0.3368  -0.2765

          Ground-State Mulliken Net Atomic Charges

     Atom                 Charge (a.u.)
  ----------------------------------------
      1 C                    -0.219706
      2 C                    -0.265761
      3 C                     0.037999
      4 H                     0.183106
      5 C                     0.020712
      6 S                    -0.007596
      7 C                    -0.316732
      8 H                     0.115975
      9 H                     0.107714
     10 H                     0.117216
     11 H                     0.200521
     12 C                    -0.178380
     13 C                    -0.088675
     14 C                    -0.036080
     15 H                     0.190837
     16 C                    -0.165156
     17 S                     0.040847
     18 C                    -0.277618
     19 H                     0.106748
     20 H                     0.122773
     21 H                     0.107849
     22 H                     0.203408
  ----------------------------------------
  Sum of atomic charges =     0.000000

                    Cartesian Multipole Moments
 -----------------------------------------------------------------
    Charge (ESU x 10^10)
                -0.0000
    Dipole Moment (Debye)
         X       4.0872      Y       0.8287      Z       2.8181
       Tot       5.0333
    Quadrupole Moments (Debye-Ang)
        XX     -79.4187     XY       3.8245     YY     -80.0339
        XZ       3.5877     YZ      -0.9380     ZZ     -83.5335

 Total job time:  58.88s(wall), 1952.25s(cpu)
        *  Thank you very much for using Q-Chem.  Have a nice day.  *
