 Q-Chem 5.4, Q-Chem, Inc., Pleasanton, CA (2021)
 Q-Chem 5.4.0 for Intel X86 EM64T Linux

User input:
--------------------------------------------------------------
$molecule
0 1
C	0.713644	-3.887800	-0.124726
C	-0.650907	-3.701456	0.115824
C	-1.068646	-2.345170	0.188844
H	-1.346284	-4.545233	0.238841
C	0.000000	-1.450135	0.000000
S	1.504375	-2.321334	-0.264890
C	-2.492978	-1.934439	0.439816
H	-3.147582	-2.819799	0.555669
H	-2.899931	-1.326210	-0.394879
H	-2.589982	-1.325374	1.362799
H	1.288299	-4.815326	-0.225628
C	0.000000	0.000000	0.000000
C	0.354153	0.766774	1.113020
C	0.937751	2.029404	0.820578
H	0.191350	0.414475	2.142881
C	1.042030	2.254581	-0.563588
S	0.406851	0.881228	-1.464748
C	1.384426	2.995779	1.882380
H	1.196413	2.589194	2.894974
H	0.849641	3.965707	1.808137
H	2.469756	3.216753	1.808230
H	1.443919	3.124243	-1.097114
$end

$rem
JOBTYPE		SP
EXCHANGE	HF
CORRELATION	pRIMP2
BASIS		cc-pvtz
METHOD		rimp2
AUX_BASIS	rimp2-cc-pvtz
SOLVENT_METHOD	PCM
PURECART	11111
SYMMETRY	false
MEM_TOTAL	110000
SCF_CONVERGENCE = 6
THRESH=10
GUI = 2
$end

$solvent
dielectric 4.90
$end
--------------------------------------------------------------

             Standard Nuclear Orientation (Angstroms)
    I     Atom           X                Y                Z
 ----------------------------------------------------------------
    1      C       0.7136440000    -3.8878000000    -0.1247260000
    2      C      -0.6509070000    -3.7014560000     0.1158240000
    3      C      -1.0686460000    -2.3451700000     0.1888440000
    4      H      -1.3462840000    -4.5452330000     0.2388410000
    5      C       0.0000000000    -1.4501350000     0.0000000000
    6      S       1.5043750000    -2.3213340000    -0.2648900000
    7      C      -2.4929780000    -1.9344390000     0.4398160000
    8      H      -3.1475820000    -2.8197990000     0.5556690000
    9      H      -2.8999310000    -1.3262100000    -0.3948790000
   10      H      -2.5899820000    -1.3253740000     1.3627990000
   11      H       1.2882990000    -4.8153260000    -0.2256280000
   12      C       0.0000000000     0.0000000000     0.0000000000
   13      C       0.3541530000     0.7667740000     1.1130200000
   14      C       0.9377510000     2.0294040000     0.8205780000
   15      H       0.1913500000     0.4144750000     2.1428810000
   16      C       1.0420300000     2.2545810000    -0.5635880000
   17      S       0.4068510000     0.8812280000    -1.4647480000
   18      C       1.3844260000     2.9957790000     1.8823800000
   19      H       1.1964130000     2.5891940000     2.8949740000
   20      H       0.8496410000     3.9657070000     1.8081370000
   21      H       2.4697560000     3.2167530000     1.8082300000
   22      H       1.4439190000     3.1242430000    -1.0971140000
 ----------------------------------------------------------------

   10   -1179.6744348819      5.10e-07  Convergence criterion met
 Total energy in the final basis set =    -1179.6744348819
        RIMP2         total energy =     -1181.6545006784 a.u.

                    Orbital Energies (a.u.)
 --------------------------------------------------------------

 Alpha MOs
 -- Occupied --
-91.9850 -91.9837 -11.2745 -11.2724 -11.2711 -11.2690 -11.2513 -11.2502
-11.2452 -11.2406 -11.2293 -11.2285  -8.9846  -8.9833  -6.6654  -6.6649
 -6.6643  -6.6642  -6.6636  -6.6630  -1.1789  -1.1490  -1.0398  -1.0219
 -0.9964  -0.9537  -0.9123  -0.8923  -0.7993  -0.7514  -0.7321  -0.6936
 -0.6608  -0.6169  -0.5830  -0.5792  -0.5697  -0.5687  -0.5509  -0.5310
 -0.5301  -0.5186  -0.5079  -0.4915  -0.4824  -0.4656  -0.4623  -0.3508
 -0.3354  -0.3195  -0.3018

          Ground-State Mulliken Net Atomic Charges

     Atom                 Charge (a.u.)
  ----------------------------------------
      1 C                    -0.206790
      2 C                    -0.253413
      3 C                     0.060211
      4 H                     0.183609
      5 C                    -0.065311
      6 S                     0.026985
      7 C                    -0.284783
      8 H                     0.106749
      9 H                     0.110727
     10 H                     0.108430
     11 H                     0.203815
     12 C                    -0.020196
     13 C                    -0.218592
     14 C                     0.022434
     15 H                     0.183833
     16 C                    -0.229641
     17 S                     0.024635
     18 C                    -0.269837
     19 H                     0.102861
     20 H                     0.107790
     21 H                     0.107943
     22 H                     0.198538
  ----------------------------------------
  Sum of atomic charges =     0.000000

                    Cartesian Multipole Moments
 -----------------------------------------------------------------
    Charge (ESU x 10^10)
                -0.0000
    Dipole Moment (Debye)
         X      -0.5679      Y       0.4236      Z       1.7799
       Tot       1.9157
    Quadrupole Moments (Debye-Ang)
        XX     -84.4447     XY       6.4591     YY     -71.0967
        XZ      -0.6265     YZ       0.5836     ZZ     -86.3913

 Total job time:  50.82s(wall), 1745.62s(cpu)
        *  Thank you very much for using Q-Chem.  Have a nice day.  *
