 Q-Chem 5.4, Q-Chem, Inc., Pleasanton, CA (2021)
 Q-Chem 5.4.0 for Intel X86 EM64T Linux

User input:
--------------------------------------------------------------
$molecule
0 1
C	-0.246754	-3.887800	-0.681143
C	0.227093	-3.701456	0.620906
C	0.371543	-2.345170	1.019618
H	0.468992	-4.545233	1.284357
C	-0.000000	-1.450135	-0.000000
S	-0.522097	-2.321334	-1.435522
C	0.866035	-1.934439	2.378731
H	1.093799	-2.819799	3.003272
H	0.114688	-1.326210	2.924444
H	1.791841	-1.325374	2.313987
H	-0.445911	-4.815326	-1.229547
C	0.000000	0.000000	0.000000
C	0.070542	0.841660	1.113020
C	0.187101	2.227746	0.820578
H	0.038051	0.454925	2.142881
C	0.208076	2.475009	-0.563588
S	0.080917	0.967235	-1.464748
C	0.276318	3.288613	1.882380
H	0.238704	2.842244	2.894974
H	-0.557951	4.017140	1.808137
H	1.220618	3.867466	1.808230
H	0.288286	3.429678	-1.097114
$end

$rem
JOBTYPE		SP
EXCHANGE	HF
CORRELATION	pRIMP2
BASIS		cc-pvtz
METHOD		rimp2
AUX_BASIS	rimp2-cc-pvtz
SOLVENT_METHOD	PCM
PURECART	11111
SYMMETRY	false
MEM_TOTAL	110000
SCF_CONVERGENCE = 6
THRESH=10
GUI = 2
$end

$solvent
dielectric 4.90
$end
--------------------------------------------------------------

             Standard Nuclear Orientation (Angstroms)
    I     Atom           X                Y                Z
 ----------------------------------------------------------------
    1      C      -0.2467540000    -3.8878000000    -0.6811430000
    2      C       0.2270930000    -3.7014560000     0.6209060000
    3      C       0.3715430000    -2.3451700000     1.0196180000
    4      H       0.4689920000    -4.5452330000     1.2843570000
    5      C       0.0000000000    -1.4501350000     0.0000000000
    6      S      -0.5220970000    -2.3213340000    -1.4355220000
    7      C       0.8660350000    -1.9344390000     2.3787310000
    8      H       1.0937990000    -2.8197990000     3.0032720000
    9      H       0.1146880000    -1.3262100000     2.9244440000
   10      H       1.7918410000    -1.3253740000     2.3139870000
   11      H      -0.4459110000    -4.8153260000    -1.2295470000
   12      C       0.0000000000     0.0000000000     0.0000000000
   13      C       0.0705420000     0.8416600000     1.1130200000
   14      C       0.1871010000     2.2277460000     0.8205780000
   15      H       0.0380510000     0.4549250000     2.1428810000
   16      C       0.2080760000     2.4750090000    -0.5635880000
   17      S       0.0809170000     0.9672350000    -1.4647480000
   18      C       0.2763180000     3.2886130000     1.8823800000
   19      H       0.2387040000     2.8422440000     2.8949740000
   20      H      -0.5579510000     4.0171400000     1.8081370000
   21      H       1.2206180000     3.8674660000     1.8082300000
   22      H       0.2882860000     3.4296780000    -1.0971140000
 ----------------------------------------------------------------

   10   -1179.6848971319      5.22e-07  Convergence criterion met
 Total energy in the final basis set =    -1179.6848971319
        RIMP2         total energy =     -1181.6647587138 a.u.

                    Orbital Energies (a.u.)
 --------------------------------------------------------------

 Alpha MOs
 -- Occupied --
-91.9861 -91.9860 -11.2838 -11.2791 -11.2733 -11.2641 -11.2541 -11.2522
-11.2444 -11.2390 -11.2313 -11.2295  -8.9859  -8.9858  -6.6668  -6.6667
 -6.6663  -6.6662  -6.6656  -6.6655  -1.1808  -1.1505  -1.0410  -1.0274
 -0.9958  -0.9559  -0.9148  -0.8948  -0.8022  -0.7561  -0.7275  -0.7009
 -0.6620  -0.6150  -0.5910  -0.5821  -0.5702  -0.5629  -0.5513  -0.5396
 -0.5299  -0.5228  -0.5038  -0.4922  -0.4887  -0.4753  -0.4534  -0.3668
 -0.3463  -0.3387  -0.2717

          Ground-State Mulliken Net Atomic Charges

     Atom                 Charge (a.u.)
  ----------------------------------------
      1 C                    -0.212327
      2 C                    -0.253643
      3 C                     0.072017
      4 H                     0.185185
      5 C                    -0.048415
      6 S                     0.012154
      7 C                    -0.309565
      8 H                     0.117374
      9 H                     0.105057
     10 H                     0.118464
     11 H                     0.206669
     12 C                     0.027143
     13 C                    -0.251715
     14 C                     0.028538
     15 H                     0.196337
     16 C                    -0.253214
     17 S                     0.012748
     18 C                    -0.271576
     19 H                     0.101627
     20 H                     0.108788
     21 H                     0.108854
     22 H                     0.199499
  ----------------------------------------
  Sum of atomic charges =     0.000000

                    Cartesian Multipole Moments
 -----------------------------------------------------------------
    Charge (ESU x 10^10)
                -0.0000
    Dipole Moment (Debye)
         X       0.6789      Y       0.1124      Z       2.8936
       Tot       2.9743
    Quadrupole Moments (Debye-Ang)
        XX     -91.9182     XY       0.1442     YY     -68.3479
        XZ       2.2820     YZ      -0.9941     ZZ     -80.8396

 Total job time:  55.11s(wall), 1927.15s(cpu)
        *  Thank you very much for using Q-Chem.  Have a nice day.  *
