 Q-Chem 5.4, Q-Chem, Inc., Pleasanton, CA (2021)
 Q-Chem 5.4.0 for Intel X86 EM64T Linux

User input:
--------------------------------------------------------------
$molecule
0 1
C	0.124726	-3.887800	0.713644
C	-0.115824	-3.701456	-0.650907
C	-0.188844	-2.345170	-1.068646
H	-0.238841	-4.545233	-1.346284
C	0.000000	-1.450135	0.000000
S	0.264890	-2.321334	1.504375
C	-0.439816	-1.934439	-2.492978
H	-0.555669	-2.819799	-3.147582
H	0.394879	-1.326210	-2.899931
H	-1.362799	-1.325374	-2.589982
H	0.225628	-4.815326	1.288299
C	0.000000	0.000000	0.000000
C	-0.003081	0.844605	1.113020
C	-0.007772	2.235575	0.820578
H	-0.001743	0.456510	2.142881
C	-0.008427	2.483726	-0.563588
S	-0.003691	0.970607	-1.464748
C	-0.011355	3.300181	1.882380
H	-0.009922	2.852233	2.894974
H	-0.905944	3.953225	1.808137
H	0.878901	3.959133	1.808230
H	-0.011727	3.441752	-1.097114
$end

$rem
JOBTYPE		SP
EXCHANGE	HF
CORRELATION	pRIMP2
BASIS		cc-pvtz
METHOD		rimp2
AUX_BASIS	rimp2-cc-pvtz
SOLVENT_METHOD	PCM
PURECART	11111
SYMMETRY	false
MEM_TOTAL	110000
SCF_CONVERGENCE = 6
THRESH=10
GUI = 2
$end

$solvent
dielectric 4.90
$end
--------------------------------------------------------------

             Standard Nuclear Orientation (Angstroms)
    I     Atom           X                Y                Z
 ----------------------------------------------------------------
    1      C       0.1247260000    -3.8878000000     0.7136440000
    2      C      -0.1158240000    -3.7014560000    -0.6509070000
    3      C      -0.1888440000    -2.3451700000    -1.0686460000
    4      H      -0.2388410000    -4.5452330000    -1.3462840000
    5      C       0.0000000000    -1.4501350000     0.0000000000
    6      S       0.2648900000    -2.3213340000     1.5043750000
    7      C      -0.4398160000    -1.9344390000    -2.4929780000
    8      H      -0.5556690000    -2.8197990000    -3.1475820000
    9      H       0.3948790000    -1.3262100000    -2.8999310000
   10      H      -1.3627990000    -1.3253740000    -2.5899820000
   11      H       0.2256280000    -4.8153260000     1.2882990000
   12      C       0.0000000000     0.0000000000     0.0000000000
   13      C      -0.0030810000     0.8446050000     1.1130200000
   14      C      -0.0077720000     2.2355750000     0.8205780000
   15      H      -0.0017430000     0.4565100000     2.1428810000
   16      C      -0.0084270000     2.4837260000    -0.5635880000
   17      S      -0.0036910000     0.9706070000    -1.4647480000
   18      C      -0.0113550000     3.3001810000     1.8823800000
   19      H      -0.0099220000     2.8522330000     2.8949740000
   20      H      -0.9059440000     3.9532250000     1.8081370000
   21      H       0.8789010000     3.9591330000     1.8082300000
   22      H      -0.0117270000     3.4417520000    -1.0971140000
 ----------------------------------------------------------------

   10   -1179.6867230446      5.44e-07  Convergence criterion met
 Total energy in the final basis set =    -1179.6867230446
        RIMP2         total energy =     -1181.6667287320 a.u.

                    Orbital Energies (a.u.)
 --------------------------------------------------------------

 Alpha MOs
 -- Occupied --
-91.9860 -91.9855 -11.2848 -11.2790 -11.2738 -11.2617 -11.2541 -11.2521
-11.2441 -11.2386 -11.2303 -11.2289  -8.9858  -8.9852  -6.6668  -6.6662
 -6.6661  -6.6656  -6.6656  -6.6649  -1.1808  -1.1502  -1.0414  -1.0258
 -0.9985  -0.9526  -0.9149  -0.8955  -0.7997  -0.7651  -0.7193  -0.6959
 -0.6634  -0.6160  -0.5840  -0.5820  -0.5772  -0.5696  -0.5529  -0.5336
 -0.5234  -0.5205  -0.5108  -0.4975  -0.4913  -0.4681  -0.4513  -0.3699
 -0.3439  -0.3402  -0.2695

          Ground-State Mulliken Net Atomic Charges

     Atom                 Charge (a.u.)
  ----------------------------------------
      1 C                    -0.210634
      2 C                    -0.256867
      3 C                     0.054497
      4 H                     0.185951
      5 C                    -0.025699
      6 S                     0.009391
      7 C                    -0.322399
      8 H                     0.118164
      9 H                     0.112993
     10 H                     0.119422
     11 H                     0.207437
     12 C                     0.059616
     13 C                    -0.271868
     14 C                     0.033062
     15 H                     0.176259
     16 C                    -0.258716
     17 S                     0.021265
     18 C                    -0.271340
     19 H                     0.102920
     20 H                     0.108425
     21 H                     0.108652
     22 H                     0.199470
  ----------------------------------------
  Sum of atomic charges =     0.000000

                    Cartesian Multipole Moments
 -----------------------------------------------------------------
    Charge (ESU x 10^10)
                -0.0000
    Dipole Moment (Debye)
         X      -0.2893      Y      -0.0098      Z      -0.1520
       Tot       0.3270
    Quadrupole Moments (Debye-Ang)
        XX     -92.5929     XY       0.3898     YY     -68.4723
        XZ       1.2011     YZ       3.5139     ZZ     -79.9619

 Total job time:  50.83s(wall), 1763.33s(cpu)
        *  Thank you very much for using Q-Chem.  Have a nice day.  *
