 Q-Chem 5.4, Q-Chem, Inc., Pleasanton, CA (2021)
 Q-Chem 5.4.0 for Intel X86 EM64T Linux

User input:
--------------------------------------------------------------
$molecule
0 1
C	0.124726	-3.887800	0.713644
C	-0.115824	-3.701456	-0.650907
C	-0.188844	-2.345170	-1.068646
H	-0.238841	-4.545233	-1.346284
C	0.000000	-1.450135	0.000000
S	0.264890	-2.321334	1.504375
C	-0.439816	-1.934439	-2.492978
H	-0.555669	-2.819799	-3.147582
H	0.394879	-1.326210	-2.899931
H	-1.362799	-1.325374	-2.589982
H	0.225628	-4.815326	1.288299
C	0.000000	0.000000	0.000000
C	0.419634	0.732990	1.113020
C	1.111057	1.939951	0.820578
H	0.226746	0.396221	2.142881
C	1.234565	2.155183	-0.563588
S	0.482106	0.842416	-1.464748
C	1.640257	2.863718	1.882380
H	1.417524	2.475067	2.894974
H	1.192042	3.876565	1.808137
H	2.740717	2.989259	1.808230
H	1.710720	2.986508	-1.097114
$end

$rem
JOBTYPE		SP
EXCHANGE	HF
CORRELATION	pRIMP2
BASIS		cc-pvtz
METHOD		rimp2
AUX_BASIS	rimp2-cc-pvtz
SOLVENT_METHOD	PCM
PURECART	11111
SYMMETRY	false
MEM_TOTAL	110000
SCF_CONVERGENCE = 6
THRESH=10
GUI = 2
$end

$solvent
dielectric 4.90
$end
--------------------------------------------------------------

             Standard Nuclear Orientation (Angstroms)
    I     Atom           X                Y                Z
 ----------------------------------------------------------------
    1      C       0.1247260000    -3.8878000000     0.7136440000
    2      C      -0.1158240000    -3.7014560000    -0.6509070000
    3      C      -0.1888440000    -2.3451700000    -1.0686460000
    4      H      -0.2388410000    -4.5452330000    -1.3462840000
    5      C       0.0000000000    -1.4501350000     0.0000000000
    6      S       0.2648900000    -2.3213340000     1.5043750000
    7      C      -0.4398160000    -1.9344390000    -2.4929780000
    8      H      -0.5556690000    -2.8197990000    -3.1475820000
    9      H       0.3948790000    -1.3262100000    -2.8999310000
   10      H      -1.3627990000    -1.3253740000    -2.5899820000
   11      H       0.2256280000    -4.8153260000     1.2882990000
   12      C       0.0000000000     0.0000000000     0.0000000000
   13      C       0.4196340000     0.7329900000     1.1130200000
   14      C       1.1110570000     1.9399510000     0.8205780000
   15      H       0.2267460000     0.3962210000     2.1428810000
   16      C       1.2345650000     2.1551830000    -0.5635880000
   17      S       0.4821060000     0.8424160000    -1.4647480000
   18      C       1.6402570000     2.8637180000     1.8823800000
   19      H       1.4175240000     2.4750670000     2.8949740000
   20      H       1.1920420000     3.8765650000     1.8081370000
   21      H       2.7407170000     2.9892590000     1.8082300000
   22      H       1.7107200000     2.9865080000    -1.0971140000
 ----------------------------------------------------------------

   10   -1179.6685544281      5.37e-07  Convergence criterion met
 Total energy in the final basis set =    -1179.6685544281
        RIMP2         total energy =     -1181.6535278393 a.u.

                    Orbital Energies (a.u.)
 --------------------------------------------------------------

 Alpha MOs
 -- Occupied --
-91.9849 -91.9832 -11.2791 -11.2781 -11.2691 -11.2687 -11.2534 -11.2484
-11.2448 -11.2422 -11.2296 -11.2284  -8.9849  -8.9831  -6.6658  -6.6652
 -6.6646  -6.6640  -6.6635  -6.6628  -1.1826  -1.1493  -1.0425  -1.0242
 -0.9990  -0.9515  -0.9141  -0.8952  -0.7980  -0.7652  -0.7208  -0.6945
 -0.6611  -0.6168  -0.5837  -0.5821  -0.5783  -0.5700  -0.5520  -0.5336
 -0.5236  -0.5200  -0.5112  -0.4971  -0.4846  -0.4668  -0.4500  -0.3683
 -0.3434  -0.3401  -0.2675

          Ground-State Mulliken Net Atomic Charges

     Atom                 Charge (a.u.)
  ----------------------------------------
      1 C                    -0.218951
      2 C                    -0.250580
      3 C                     0.046465
      4 H                     0.184811
      5 C                    -0.024217
      6 S                     0.003337
      7 C                    -0.319986
      8 H                     0.115449
      9 H                     0.112822
     10 H                     0.118278
     11 H                     0.205195
     12 C                     0.035085
     13 C                    -0.271943
     14 C                     0.045432
     15 H                     0.179154
     16 C                    -0.249241
     17 S                     0.036508
     18 C                    -0.267549
     19 H                     0.103156
     20 H                     0.108572
     21 H                     0.108724
     22 H                     0.199480
  ----------------------------------------
  Sum of atomic charges =     0.000000

                    Cartesian Multipole Moments
 -----------------------------------------------------------------
    Charge (ESU x 10^10)
                -0.0000
    Dipole Moment (Debye)
         X       0.8203      Y       0.4486      Z      -0.0658
       Tot       0.9373
    Quadrupole Moments (Debye-Ang)
        XX     -89.7245     XY       5.2939     YY     -72.1690
        XZ       1.6327     YZ       3.4024     ZZ     -80.0205

 Total job time:  50.19s(wall), 1721.90s(cpu)
        *  Thank you very much for using Q-Chem.  Have a nice day.  *
