 Q-Chem 5.4, Q-Chem, Inc., Pleasanton, CA (2021)
 Q-Chem 5.4.0 for Intel X86 EM64T Linux

User input:
--------------------------------------------------------------
$molecule
0 1
C	-0.361285	-3.887800	-0.627947
C	0.331462	-3.701456	0.572038
C	0.542953	-2.345170	0.939610
H	0.684893	-4.545233	1.183405
C	0.000000	-1.450135	0.000000
S	-0.763441	-2.321334	-1.323052
C	1.265941	-1.934439	2.192207
H	1.598695	-2.819799	2.767709
H	0.620770	-1.326210	2.860100
H	2.166438	-1.325374	1.967682
H	-0.652645	-4.815326	-1.133436
C	0.000000	0.000000	0.000000
C	0.419634	0.732990	1.113020
C	1.111057	1.939951	0.820578
H	0.226746	0.396221	2.142881
C	1.234565	2.155183	-0.563588
S	0.482106	0.842416	-1.464748
C	1.640257	2.863718	1.882380
H	1.417524	2.475067	2.894974
H	1.192042	3.876565	1.808137
H	2.740717	2.989259	1.808230
H	1.710720	2.986508	-1.097114
$end

$rem
JOBTYPE		SP
EXCHANGE	HF
CORRELATION	pRIMP2
BASIS		cc-pvtz
METHOD		rimp2
AUX_BASIS	rimp2-cc-pvtz
SOLVENT_METHOD	PCM
PURECART	11111
SYMMETRY	false
MEM_TOTAL	110000
SCF_CONVERGENCE = 6
THRESH=10
GUI = 2
$end

$solvent
dielectric 4.90
$end
--------------------------------------------------------------

             Standard Nuclear Orientation (Angstroms)
    I     Atom           X                Y                Z
 ----------------------------------------------------------------
    1      C      -0.3612850000    -3.8878000000    -0.6279470000
    2      C       0.3314620000    -3.7014560000     0.5720380000
    3      C       0.5429530000    -2.3451700000     0.9396100000
    4      H       0.6848930000    -4.5452330000     1.1834050000
    5      C       0.0000000000    -1.4501350000     0.0000000000
    6      S      -0.7634410000    -2.3213340000    -1.3230520000
    7      C       1.2659410000    -1.9344390000     2.1922070000
    8      H       1.5986950000    -2.8197990000     2.7677090000
    9      H       0.6207700000    -1.3262100000     2.8601000000
   10      H       2.1664380000    -1.3253740000     1.9676820000
   11      H      -0.6526450000    -4.8153260000    -1.1334360000
   12      C       0.0000000000     0.0000000000     0.0000000000
   13      C       0.4196340000     0.7329900000     1.1130200000
   14      C       1.1110570000     1.9399510000     0.8205780000
   15      H       0.2267460000     0.3962210000     2.1428810000
   16      C       1.2345650000     2.1551830000    -0.5635880000
   17      S       0.4821060000     0.8424160000    -1.4647480000
   18      C       1.6402570000     2.8637180000     1.8823800000
   19      H       1.4175240000     2.4750670000     2.8949740000
   20      H       1.1920420000     3.8765650000     1.8081370000
   21      H       2.7407170000     2.9892590000     1.8082300000
   22      H       1.7107200000     2.9865080000    -1.0971140000
 ----------------------------------------------------------------

   10   -1179.6668909109      5.53e-07  Convergence criterion met
 Total energy in the final basis set =    -1179.6668909109
        RIMP2         total energy =     -1181.6515723671 a.u.

                    Orbital Energies (a.u.)
 --------------------------------------------------------------

 Alpha MOs
 -- Occupied --
-91.9845 -91.9822 -11.2777 -11.2757 -11.2703 -11.2703 -11.2525 -11.2506
-11.2443 -11.2425 -11.2302 -11.2294  -8.9844  -8.9822  -6.6653  -6.6647
 -6.6641  -6.6631  -6.6626  -6.6620  -1.1817  -1.1493  -1.0416  -1.0255
 -0.9956  -0.9547  -0.9140  -0.8940  -0.7993  -0.7548  -0.7296  -0.7009
 -0.6593  -0.6156  -0.5917  -0.5816  -0.5708  -0.5615  -0.5500  -0.5393
 -0.5283  -0.5229  -0.5055  -0.4918  -0.4807  -0.4709  -0.4544  -0.3603
 -0.3446  -0.3389  -0.2730

          Ground-State Mulliken Net Atomic Charges

     Atom                 Charge (a.u.)
  ----------------------------------------
      1 C                    -0.213955
      2 C                    -0.251385
      3 C                     0.058982
      4 H                     0.185133
      5 C                    -0.030660
      6 S                     0.009845
      7 C                    -0.304548
      8 H                     0.115846
      9 H                     0.103219
     10 H                     0.118373
     11 H                     0.204990
     12 C                     0.004343
     13 C                    -0.286895
     14 C                     0.053461
     15 H                     0.195992
     16 C                    -0.241400
     17 S                     0.028570
     18 C                    -0.269452
     19 H                     0.102362
     20 H                     0.109478
     21 H                     0.108422
     22 H                     0.199281
  ----------------------------------------
  Sum of atomic charges =     0.000000

                    Cartesian Multipole Moments
 -----------------------------------------------------------------
    Charge (ESU x 10^10)
                -0.0000
    Dipole Moment (Debye)
         X       1.8711      Y       0.4339      Z       2.9018
       Tot       3.4799
    Quadrupole Moments (Debye-Ang)
        XX     -88.2405     XY       3.7784     YY     -71.8753
        XZ       3.3670     YZ      -1.0453     ZZ     -81.8202

 Total job time:  49.13s(wall), 1741.28s(cpu)
        *  Thank you very much for using Q-Chem.  Have a nice day.  *
