 Q-Chem 5.4, Q-Chem, Inc., Pleasanton, CA (2021)
 Q-Chem 5.4.0 for Intel X86 EM64T Linux

User input:
--------------------------------------------------------------
$molecule
0 1
C	0.681143	-3.887800	-0.246754
C	-0.620906	-3.701456	0.227093
C	-1.019618	-2.345170	0.371543
H	-1.284357	-4.545233	0.468992
C	0.000000	-1.450135	0.000000
S	1.435522	-2.321334	-0.522097
C	-2.378731	-1.934439	0.866035
H	-3.003272	-2.819799	1.093799
H	-2.924444	-1.326210	0.114688
H	-2.313987	-1.325374	1.791841
H	1.229547	-4.815326	-0.445911
C	0.000000	0.000000	0.000000
C	0.419634	0.732990	1.113020
C	1.111057	1.939951	0.820578
H	0.226746	0.396221	2.142881
C	1.234565	2.155183	-0.563588
S	0.482106	0.842416	-1.464748
C	1.640257	2.863718	1.882380
H	1.417524	2.475067	2.894974
H	1.192042	3.876565	1.808137
H	2.740717	2.989259	1.808230
H	1.710720	2.986508	-1.097114
$end

$rem
JOBTYPE		SP
EXCHANGE	HF
CORRELATION	pRIMP2
BASIS		cc-pvtz
METHOD		rimp2
AUX_BASIS	rimp2-cc-pvtz
SOLVENT_METHOD	PCM
PURECART	11111
SYMMETRY	false
MEM_TOTAL	110000
SCF_CONVERGENCE = 6
THRESH=10
GUI = 2
$end

$solvent
dielectric 4.90
$end
--------------------------------------------------------------

             Standard Nuclear Orientation (Angstroms)
    I     Atom           X                Y                Z
 ----------------------------------------------------------------
    1      C       0.6811430000    -3.8878000000    -0.2467540000
    2      C      -0.6209060000    -3.7014560000     0.2270930000
    3      C      -1.0196180000    -2.3451700000     0.3715430000
    4      H      -1.2843570000    -4.5452330000     0.4689920000
    5      C       0.0000000000    -1.4501350000     0.0000000000
    6      S       1.4355220000    -2.3213340000    -0.5220970000
    7      C      -2.3787310000    -1.9344390000     0.8660350000
    8      H      -3.0032720000    -2.8197990000     1.0937990000
    9      H      -2.9244440000    -1.3262100000     0.1146880000
   10      H      -2.3139870000    -1.3253740000     1.7918410000
   11      H       1.2295470000    -4.8153260000    -0.4459110000
   12      C       0.0000000000     0.0000000000     0.0000000000
   13      C       0.4196340000     0.7329900000     1.1130200000
   14      C       1.1110570000     1.9399510000     0.8205780000
   15      H       0.2267460000     0.3962210000     2.1428810000
   16      C       1.2345650000     2.1551830000    -0.5635880000
   17      S       0.4821060000     0.8424160000    -1.4647480000
   18      C       1.6402570000     2.8637180000     1.8823800000
   19      H       1.4175240000     2.4750670000     2.8949740000
   20      H       1.1920420000     3.8765650000     1.8081370000
   21      H       2.7407170000     2.9892590000     1.8082300000
   22      H       1.7107200000     2.9865080000    -1.0971140000
 ----------------------------------------------------------------

   10   -1179.6693198320      5.24e-07  Convergence criterion met
 Total energy in the final basis set =    -1179.6693198320
        RIMP2         total energy =     -1181.6509371917 a.u.

                    Orbital Energies (a.u.)
 --------------------------------------------------------------

 Alpha MOs
 -- Occupied --
-91.9852 -91.9830 -11.2736 -11.2728 -11.2710 -11.2693 -11.2519 -11.2480
-11.2472 -11.2402 -11.2296 -11.2280  -8.9849  -8.9827  -6.6658  -6.6652
 -6.6647  -6.6636  -6.6630  -6.6624  -1.1799  -1.1487  -1.0406  -1.0214
 -0.9964  -0.9541  -0.9116  -0.8924  -0.7993  -0.7503  -0.7333  -0.6938
 -0.6600  -0.6170  -0.5838  -0.5793  -0.5695  -0.5680  -0.5507  -0.5318
 -0.5305  -0.5184  -0.5082  -0.4910  -0.4798  -0.4675  -0.4608  -0.3531
 -0.3363  -0.3255  -0.2928

          Ground-State Mulliken Net Atomic Charges

     Atom                 Charge (a.u.)
  ----------------------------------------
      1 C                    -0.212615
      2 C                    -0.252254
      3 C                     0.052746
      4 H                     0.183286
      5 C                    -0.057106
      6 S                     0.027081
      7 C                    -0.285469
      8 H                     0.106901
      9 H                     0.110383
     10 H                     0.107282
     11 H                     0.203399
     12 C                    -0.033250
     13 C                    -0.198199
     14 C                     0.014740
     15 H                     0.185397
     16 C                    -0.220987
     17 S                     0.020917
     18 C                    -0.269595
     19 H                     0.102786
     20 H                     0.107884
     21 H                     0.107805
     22 H                     0.198868
  ----------------------------------------
  Sum of atomic charges =     0.000000

                    Cartesian Multipole Moments
 -----------------------------------------------------------------
    Charge (ESU x 10^10)
                -0.0000
    Dipole Moment (Debye)
         X      -0.2552      Y       0.5676      Z       2.0427
       Tot       2.1354
    Quadrupole Moments (Debye-Ang)
        XX     -84.2592     XY       6.9896     YY     -72.2702
        XZ      -1.5021     YZ       0.1303     ZZ     -85.7379

 Total job time:  56.34s(wall), 1700.38s(cpu)
        *  Thank you very much for using Q-Chem.  Have a nice day.  *
