 Q-Chem 5.4, Q-Chem, Inc., Pleasanton, CA (2021)
 Q-Chem 5.4.0 for Intel X86 EM64T Linux

User input:
--------------------------------------------------------------
$molecule
0 1
C	0.248806	-3.887800	-0.680396
C	-0.225147	-3.701456	0.621614
C	-0.370780	-2.345170	1.019896
H	-0.466300	-4.545233	1.285337
C	-0.000000	-1.450135	-0.000000
S	0.522786	-2.321334	-1.435271
C	-0.865597	-1.934439	2.378891
H	-1.092567	-2.819799	3.003720
H	-1.791940	-1.326210	2.313975
H	-0.114772	-1.325374	2.924390
H	0.448750	-4.815326	-1.228514
C	0.000000	0.000000	0.000000
C	0.215623	0.816623	1.113020
C	0.571102	2.161411	0.820578
H	0.116470	0.441406	2.142881
C	0.634696	2.401276	-0.563588
S	0.247646	0.938489	-1.464748
C	0.843182	3.190669	1.882380
H	0.728628	2.757614	2.894974
H	0.148095	4.052998	1.808137
H	1.873652	3.596752	1.808230
H	0.879464	3.327513	-1.097114
$end

$rem
JOBTYPE		SP
EXCHANGE	HF
CORRELATION	pRIMP2
BASIS		cc-pvtz
METHOD		rimp2
AUX_BASIS	rimp2-cc-pvtz
SOLVENT_METHOD	PCM
PURECART	11111
SYMMETRY	false
MEM_TOTAL	110000
SCF_CONVERGENCE = 6
THRESH=10
GUI = 2
$end

$solvent
dielectric 4.90
$end
--------------------------------------------------------------

             Standard Nuclear Orientation (Angstroms)
    I     Atom           X                Y                Z
 ----------------------------------------------------------------
    1      C       0.2488060000    -3.8878000000    -0.6803960000
    2      C      -0.2251470000    -3.7014560000     0.6216140000
    3      C      -0.3707800000    -2.3451700000     1.0198960000
    4      H      -0.4663000000    -4.5452330000     1.2853370000
    5      C       0.0000000000    -1.4501350000     0.0000000000
    6      S       0.5227860000    -2.3213340000    -1.4352710000
    7      C      -0.8655970000    -1.9344390000     2.3788910000
    8      H      -1.0925670000    -2.8197990000     3.0037200000
    9      H      -1.7919400000    -1.3262100000     2.3139750000
   10      H      -0.1147720000    -1.3253740000     2.9243900000
   11      H       0.4487500000    -4.8153260000    -1.2285140000
   12      C       0.0000000000     0.0000000000     0.0000000000
   13      C       0.2156230000     0.8166230000     1.1130200000
   14      C       0.5711020000     2.1614110000     0.8205780000
   15      H       0.1164700000     0.4414060000     2.1428810000
   16      C       0.6346960000     2.4012760000    -0.5635880000
   17      S       0.2476460000     0.9384890000    -1.4647480000
   18      C       0.8431820000     3.1906690000     1.8823800000
   19      H       0.7286280000     2.7576140000     2.8949740000
   20      H       0.1480950000     4.0529980000     1.8081370000
   21      H       1.8736520000     3.5967520000     1.8082300000
   22      H       0.8794640000     3.3275130000    -1.0971140000
 ----------------------------------------------------------------

   10   -1179.6811037564      4.89e-07  Convergence criterion met
 Total energy in the final basis set =    -1179.6811037564
        RIMP2         total energy =     -1181.6619211537 a.u.

                    Orbital Energies (a.u.)
 --------------------------------------------------------------

 Alpha MOs
 -- Occupied --
-91.9865 -91.9858 -11.2831 -11.2792 -11.2713 -11.2659 -11.2528 -11.2517
-11.2437 -11.2411 -11.2310 -11.2297  -8.9862  -8.9855  -6.6671  -6.6666
 -6.6665  -6.6659  -6.6659  -6.6653  -1.1812  -1.1503  -1.0415  -1.0267
 -0.9959  -0.9562  -0.9140  -0.8949  -0.8022  -0.7555  -0.7281  -0.7005
 -0.6615  -0.6150  -0.5912  -0.5821  -0.5704  -0.5627  -0.5514  -0.5396
 -0.5304  -0.5222  -0.5043  -0.4913  -0.4877  -0.4764  -0.4526  -0.3678
 -0.3462  -0.3380  -0.2707

          Ground-State Mulliken Net Atomic Charges

     Atom                 Charge (a.u.)
  ----------------------------------------
      1 C                    -0.217566
      2 C                    -0.250522
      3 C                     0.059221
      4 H                     0.185044
      5 C                    -0.043594
      6 S                     0.011110
      7 C                    -0.312481
      8 H                     0.116663
      9 H                     0.117550
     10 H                     0.104023
     11 H                     0.206076
     12 C                     0.021515
     13 C                    -0.222576
     14 C                     0.016261
     15 H                     0.194259
     16 C                    -0.238570
     17 S                     0.005363
     18 C                    -0.271382
     19 H                     0.101436
     20 H                     0.108736
     21 H                     0.108944
     22 H                     0.200491
  ----------------------------------------
  Sum of atomic charges =     0.000000

                    Cartesian Multipole Moments
 -----------------------------------------------------------------
    Charge (ESU x 10^10)
                -0.0000
    Dipole Moment (Debye)
         X      -0.0081      Y       0.2969      Z       2.8744
       Tot       2.8897
    Quadrupole Moments (Debye-Ang)
        XX     -91.2600     XY       3.5345     YY     -69.3712
        XZ      -1.8425     YZ      -1.0672     ZZ     -80.8342

 Total job time:  47.44s(wall), 1724.05s(cpu)
        *  Thank you very much for using Q-Chem.  Have a nice day.  *
