 Q-Chem 5.4, Q-Chem, Inc., Pleasanton, CA (2021)
 Q-Chem 5.4.0 for Intel X86 EM64T Linux

User input:
--------------------------------------------------------------
$molecule
0 1
C	0.363176	-3.887800	-0.626855
C	-0.329669	-3.701456	0.573074
C	-0.542250	-2.345170	0.940016
H	-0.682412	-4.545233	1.184837
C	0.000000	-1.450135	0.000000
S	0.764076	-2.321334	-1.322686
C	-1.265537	-1.934439	2.192440
H	-1.597559	-2.819799	2.768365
H	-2.166534	-1.326210	1.967653
H	-0.620843	-1.325374	2.860032
H	0.655262	-4.815326	-1.131925
C	0.000000	0.000000	0.000000
C	0.645024	0.545262	1.113020
C	1.707554	1.442954	0.820578
H	0.348587	0.294774	2.142881
C	1.897227	1.602964	-0.563588
S	0.741155	0.626722	-1.464748
C	2.520787	2.130014	1.882380
H	2.178559	1.840981	2.894974
H	2.446016	3.235078	1.808137
H	3.597818	1.871604	1.808230
H	2.628997	2.221299	-1.097114
$end

$rem
JOBTYPE		SP
EXCHANGE	HF
CORRELATION	pRIMP2
BASIS		cc-pvtz
METHOD		rimp2
AUX_BASIS	rimp2-cc-pvtz
SOLVENT_METHOD	PCM
PURECART	11111
SYMMETRY	false
MEM_TOTAL	110000
SCF_CONVERGENCE = 6
THRESH=10
GUI = 2
$end

$solvent
dielectric 4.90
$end
--------------------------------------------------------------

             Standard Nuclear Orientation (Angstroms)
    I     Atom           X                Y                Z
 ----------------------------------------------------------------
    1      C       0.3631760000    -3.8878000000    -0.6268550000
    2      C      -0.3296690000    -3.7014560000     0.5730740000
    3      C      -0.5422500000    -2.3451700000     0.9400160000
    4      H      -0.6824120000    -4.5452330000     1.1848370000
    5      C       0.0000000000    -1.4501350000     0.0000000000
    6      S       0.7640760000    -2.3213340000    -1.3226860000
    7      C      -1.2655370000    -1.9344390000     2.1924400000
    8      H      -1.5975590000    -2.8197990000     2.7683650000
    9      H      -2.1665340000    -1.3262100000     1.9676530000
   10      H      -0.6208430000    -1.3253740000     2.8600320000
   11      H       0.6552620000    -4.8153260000    -1.1319250000
   12      C       0.0000000000     0.0000000000     0.0000000000
   13      C       0.6450240000     0.5452620000     1.1130200000
   14      C       1.7075540000     1.4429540000     0.8205780000
   15      H       0.3485870000     0.2947740000     2.1428810000
   16      C       1.8972270000     1.6029640000    -0.5635880000
   17      S       0.7411550000     0.6267220000    -1.4647480000
   18      C       2.5207870000     2.1300140000     1.8823800000
   19      H       2.1785590000     1.8409810000     2.8949740000
   20      H       2.4460160000     3.2350780000     1.8081370000
   21      H       3.5978180000     1.8716040000     1.8082300000
   22      H       2.6289970000     2.2212990000    -1.0971140000
 ----------------------------------------------------------------

   10   -1179.6353187557      9.61e-07  Convergence criterion met
 Total energy in the final basis set =    -1179.6353187557
        RIMP2         total energy =     -1181.6265555230 a.u.

                    Orbital Energies (a.u.)
 --------------------------------------------------------------

 Alpha MOs
 -- Occupied --
-91.9861 -91.9794 -11.2854 -11.2792 -11.2671 -11.2612 -11.2563 -11.2558
-11.2381 -11.2344 -11.2320 -11.2266  -8.9866  -8.9792  -6.6674  -6.6667
 -6.6663  -6.6601  -6.6594  -6.6588  -1.1890  -1.1463  -1.0461  -1.0213
 -0.9973  -0.9555  -0.9100  -0.8934  -0.8006  -0.7535  -0.7322  -0.6979
 -0.6550  -0.6182  -0.5941  -0.5813  -0.5699  -0.5614  -0.5496  -0.5405
 -0.5332  -0.5176  -0.5064  -0.4885  -0.4832  -0.4649  -0.4486  -0.3683
 -0.3410  -0.3353  -0.2663

          Ground-State Mulliken Net Atomic Charges

     Atom                 Charge (a.u.)
  ----------------------------------------
      1 C                    -0.257859
      2 C                    -0.239474
      3 C                     0.007262
      4 H                     0.181441
      5 C                     0.005549
      6 S                     0.013116
      7 C                    -0.301716
      8 H                     0.110248
      9 H                     0.110306
     10 H                     0.096510
     11 H                     0.200244
     12 C                    -0.073589
     13 C                    -0.128737
     14 C                    -0.012549
     15 H                     0.199886
     16 C                    -0.184287
     17 S                     0.018209
     18 C                    -0.267461
     19 H                     0.102372
     20 H                     0.108729
     21 H                     0.107796
     22 H                     0.204004
  ----------------------------------------
  Sum of atomic charges =     0.000000

                    Cartesian Multipole Moments
 -----------------------------------------------------------------
    Charge (ESU x 10^10)
                -0.0000
    Dipole Moment (Debye)
         X       1.6762      Y       1.4817      Z       2.7828
       Tot       3.5706
    Quadrupole Moments (Debye-Ang)
        XX     -83.6907     XY       7.5082     YY     -79.0634
        XZ      -1.8724     YZ      -1.3829     ZZ     -81.5238

 Total job time:  50.18s(wall), 1713.69s(cpu)
        *  Thank you very much for using Q-Chem.  Have a nice day.  *
