 Q-Chem 5.4, Q-Chem, Inc., Pleasanton, CA (2021)
 Q-Chem 5.4.0 for Intel X86 EM64T Linux

User input:
--------------------------------------------------------------
$molecule
0 1
C	-0.466510	-3.887800	0.554267
C	0.424173	-3.701456	-0.507121
C	0.697244	-2.345170	-0.831575
H	0.877789	-4.545233	-1.048337
C	0.000000	-1.450135	0.000000
S	-0.982150	-2.321334	1.169911
C	1.627024	-1.934439	-1.939374
H	2.054010	-2.819799	-2.448894
H	2.475299	-1.326210	-1.561545
H	1.108051	-1.325374	-2.708773
H	-0.841863	-4.815326	1.000944
C	0.000000	0.000000	0.000000
C	0.285976	0.794723	1.113020
C	0.757308	2.103412	0.820578
H	0.154498	0.429575	2.142881
C	0.841565	2.336821	-0.563588
S	0.328498	0.913334	-1.464748
C	1.118059	3.105040	1.882380
H	0.966197	2.683616	2.894974
H	0.500773	4.024668	1.808137
H	2.180000	3.419766	1.808230
H	1.166129	3.238200	-1.097114
$end

$rem
JOBTYPE		SP
EXCHANGE	HF
CORRELATION	pRIMP2
BASIS		cc-pvtz
METHOD		rimp2
AUX_BASIS	rimp2-cc-pvtz
SOLVENT_METHOD	PCM
PURECART	11111
SYMMETRY	false
MEM_TOTAL	110000
SCF_CONVERGENCE = 6
THRESH=10
GUI = 2
$end

$solvent
dielectric 4.90
$end
--------------------------------------------------------------

             Standard Nuclear Orientation (Angstroms)
    I     Atom           X                Y                Z
 ----------------------------------------------------------------
    1      C      -0.4665100000    -3.8878000000     0.5542670000
    2      C       0.4241730000    -3.7014560000    -0.5071210000
    3      C       0.6972440000    -2.3451700000    -0.8315750000
    4      H       0.8777890000    -4.5452330000    -1.0483370000
    5      C       0.0000000000    -1.4501350000     0.0000000000
    6      S      -0.9821500000    -2.3213340000     1.1699110000
    7      C       1.6270240000    -1.9344390000    -1.9393740000
    8      H       2.0540100000    -2.8197990000    -2.4488940000
    9      H       2.4752990000    -1.3262100000    -1.5615450000
   10      H       1.1080510000    -1.3253740000    -2.7087730000
   11      H      -0.8418630000    -4.8153260000     1.0009440000
   12      C       0.0000000000     0.0000000000     0.0000000000
   13      C       0.2859760000     0.7947230000     1.1130200000
   14      C       0.7573080000     2.1034120000     0.8205780000
   15      H       0.1544980000     0.4295750000     2.1428810000
   16      C       0.8415650000     2.3368210000    -0.5635880000
   17      S       0.3284980000     0.9133340000    -1.4647480000
   18      C       1.1180590000     3.1050400000     1.8823800000
   19      H       0.9661970000     2.6836160000     2.8949740000
   20      H       0.5007730000     4.0246680000     1.8081370000
   21      H       2.1800000000     3.4197660000     1.8082300000
   22      H       1.1661290000     3.2382000000    -1.0971140000
 ----------------------------------------------------------------

   10   -1179.6760816423      5.06e-07  Convergence criterion met
 Total energy in the final basis set =    -1179.6760816423
        RIMP2         total energy =     -1181.6582235246 a.u.

                    Orbital Energies (a.u.)
 --------------------------------------------------------------

 Alpha MOs
 -- Occupied --
-91.9845 -91.9843 -11.2799 -11.2775 -11.2703 -11.2667 -11.2516 -11.2503
-11.2432 -11.2424 -11.2293 -11.2269  -8.9843  -8.9840  -6.6652  -6.6650
 -6.6647  -6.6644  -6.6641  -6.6638  -1.1802  -1.1493  -1.0411  -1.0223
 -0.9980  -0.9531  -0.9128  -0.8940  -0.7981  -0.7612  -0.7234  -0.6953
 -0.6609  -0.6164  -0.5826  -0.5780  -0.5765  -0.5696  -0.5512  -0.5323
 -0.5265  -0.5194  -0.5108  -0.4954  -0.4839  -0.4661  -0.4547  -0.3598
 -0.3418  -0.3368  -0.2762

          Ground-State Mulliken Net Atomic Charges

     Atom                 Charge (a.u.)
  ----------------------------------------
      1 C                    -0.215874
      2 C                    -0.252119
      3 C                     0.046688
      4 H                     0.185409
      5 C                    -0.033681
      6 S                     0.017324
      7 C                    -0.300488
      8 H                     0.109214
      9 H                     0.119352
     10 H                     0.111938
     11 H                     0.204362
     12 C                    -0.005148
     13 C                    -0.223554
     14 C                     0.014809
     15 H                     0.185258
     16 C                    -0.230692
     17 S                     0.018899
     18 C                    -0.269776
     19 H                     0.103053
     20 H                     0.108263
     21 H                     0.107713
     22 H                     0.199052
  ----------------------------------------
  Sum of atomic charges =     0.000000

                    Cartesian Multipole Moments
 -----------------------------------------------------------------
    Charge (ESU x 10^10)
                -0.0000
    Dipole Moment (Debye)
         X       1.6968      Y       0.4151      Z       0.2348
       Tot       1.7625
    Quadrupole Moments (Debye-Ang)
        XX     -88.7885     XY       2.1248     YY     -70.8064
        XZ      -2.9261     YZ       2.7285     ZZ     -82.6408

 Total job time:  56.86s(wall), 1721.85s(cpu)
        *  Thank you very much for using Q-Chem.  Have a nice day.  *
