 Q-Chem 5.4, Q-Chem, Inc., Pleasanton, CA (2021)
 Q-Chem 5.4.0 for Intel X86 EM64T Linux

User input:
--------------------------------------------------------------
$molecule
0 1
C	-0.466510	-3.887800	0.554267
C	0.424173	-3.701456	-0.507121
C	0.697244	-2.345170	-0.831575
H	0.877789	-4.545233	-1.048337
C	0.000000	-1.450135	0.000000
S	-0.982150	-2.321334	1.169911
C	1.627024	-1.934439	-1.939374
H	2.054010	-2.819799	-2.448894
H	2.475299	-1.326210	-1.561545
H	1.108051	-1.325374	-2.708773
H	-0.841863	-4.815326	1.000944
C	0.000000	0.000000	0.000000
C	0.645024	0.545262	1.113020
C	1.707554	1.442954	0.820578
H	0.348587	0.294774	2.142881
C	1.897227	1.602964	-0.563588
S	0.741155	0.626722	-1.464748
C	2.520787	2.130014	1.882380
H	2.178559	1.840981	2.894974
H	2.446016	3.235078	1.808137
H	3.597818	1.871604	1.808230
H	2.628997	2.221299	-1.097114
$end

$rem
JOBTYPE		SP
EXCHANGE	HF
CORRELATION	pRIMP2
BASIS		cc-pvtz
METHOD		rimp2
AUX_BASIS	rimp2-cc-pvtz
SOLVENT_METHOD	PCM
PURECART	11111
SYMMETRY	false
MEM_TOTAL	110000
SCF_CONVERGENCE = 6
THRESH=10
GUI = 2
$end

$solvent
dielectric 4.90
$end
--------------------------------------------------------------

             Standard Nuclear Orientation (Angstroms)
    I     Atom           X                Y                Z
 ----------------------------------------------------------------
    1      C      -0.4665100000    -3.8878000000     0.5542670000
    2      C       0.4241730000    -3.7014560000    -0.5071210000
    3      C       0.6972440000    -2.3451700000    -0.8315750000
    4      H       0.8777890000    -4.5452330000    -1.0483370000
    5      C       0.0000000000    -1.4501350000     0.0000000000
    6      S      -0.9821500000    -2.3213340000     1.1699110000
    7      C       1.6270240000    -1.9344390000    -1.9393740000
    8      H       2.0540100000    -2.8197990000    -2.4488940000
    9      H       2.4752990000    -1.3262100000    -1.5615450000
   10      H       1.1080510000    -1.3253740000    -2.7087730000
   11      H      -0.8418630000    -4.8153260000     1.0009440000
   12      C       0.0000000000     0.0000000000     0.0000000000
   13      C       0.6450240000     0.5452620000     1.1130200000
   14      C       1.7075540000     1.4429540000     0.8205780000
   15      H       0.3485870000     0.2947740000     2.1428810000
   16      C       1.8972270000     1.6029640000    -0.5635880000
   17      S       0.7411550000     0.6267220000    -1.4647480000
   18      C       2.5207870000     2.1300140000     1.8823800000
   19      H       2.1785590000     1.8409810000     2.8949740000
   20      H       2.4460160000     3.2350780000     1.8081370000
   21      H       3.5978180000     1.8716040000     1.8082300000
   22      H       2.6289970000     2.2212990000    -1.0971140000
 ----------------------------------------------------------------

   10   -1179.6186785218      9.47e-07  Convergence criterion met
 Total energy in the final basis set =    -1179.6186785218
        RIMP2         total energy =     -1181.6153243693 a.u.

                    Orbital Energies (a.u.)
 --------------------------------------------------------------

 Alpha MOs
 -- Occupied --
-91.9804 -91.9770 -11.2817 -11.2795 -11.2641 -11.2608 -11.2570 -11.2529
-11.2393 -11.2383 -11.2307 -11.2207  -8.9817  -8.9771  -6.6623  -6.6617
 -6.6613  -6.6581  -6.6575  -6.6569  -1.1870  -1.1459  -1.0449  -1.0206
 -0.9976  -0.9519  -0.9097  -0.8948  -0.7932  -0.7614  -0.7272  -0.6951
 -0.6554  -0.6192  -0.5862  -0.5818  -0.5756  -0.5684  -0.5489  -0.5363
 -0.5247  -0.5214  -0.5111  -0.4945  -0.4693  -0.4556  -0.4479  -0.3620
 -0.3382  -0.3305  -0.2700

          Ground-State Mulliken Net Atomic Charges

     Atom                 Charge (a.u.)
  ----------------------------------------
      1 C                    -0.229448
      2 C                    -0.254859
      3 C                     0.015211
      4 H                     0.184307
      5 C                    -0.001299
      6 S                    -0.007680
      7 C                    -0.279706
      8 H                     0.101792
      9 H                     0.112748
     10 H                     0.109057
     11 H                     0.200779
     12 C                    -0.091360
     13 C                    -0.131701
     14 C                    -0.011880
     15 H                     0.189125
     16 C                    -0.197135
     17 S                     0.040534
     18 C                    -0.266363
     19 H                     0.103366
     20 H                     0.107448
     21 H                     0.105965
     22 H                     0.201100
  ----------------------------------------
  Sum of atomic charges =     0.000000

                    Cartesian Multipole Moments
 -----------------------------------------------------------------
    Charge (ESU x 10^10)
                -0.0000
    Dipole Moment (Debye)
         X       3.2672      Y       1.1091      Z       0.2185
       Tot       3.4572
    Quadrupole Moments (Debye-Ang)
        XX     -83.0144     XY       4.6376     YY     -79.1865
        XZ      -2.5232     YZ       2.4042     ZZ     -82.2128

 Total job time:  58.76s(wall), 1740.11s(cpu)
        *  Thank you very much for using Q-Chem.  Have a nice day.  *
