 Q-Chem 5.4, Q-Chem, Inc., Pleasanton, CA (2021)
 Q-Chem 5.4.0 for Intel X86 EM64T Linux

User input:
--------------------------------------------------------------
$molecule
0 1
C	0.246754	-3.887800	0.681143
C	-0.227093	-3.701456	-0.620906
C	-0.371543	-2.345170	-1.019618
H	-0.468992	-4.545233	-1.284357
C	0.000000	-1.450135	0.000000
S	0.522097	-2.321334	1.435522
C	-0.866035	-1.934439	-2.378731
H	-1.093799	-2.819799	-3.003272
H	-0.114688	-1.326210	-2.924444
H	-1.791841	-1.325374	-2.313987
H	0.445911	-4.815326	1.229547
C	0.000000	0.000000	0.000000
C	0.285976	0.794723	1.113020
C	0.757308	2.103412	0.820578
H	0.154498	0.429575	2.142881
C	0.841565	2.336821	-0.563588
S	0.328498	0.913334	-1.464748
C	1.118059	3.105040	1.882380
H	0.966197	2.683616	2.894974
H	0.500773	4.024668	1.808137
H	2.180000	3.419766	1.808230
H	1.166129	3.238200	-1.097114
$end

$rem
JOBTYPE		SP
EXCHANGE	HF
CORRELATION	pRIMP2
BASIS		cc-pvtz
METHOD		rimp2
AUX_BASIS	rimp2-cc-pvtz
SOLVENT_METHOD	PCM
PURECART	11111
SYMMETRY	false
MEM_TOTAL	110000
SCF_CONVERGENCE = 6
THRESH=10
GUI = 2
$end

$solvent
dielectric 4.90
$end
--------------------------------------------------------------

             Standard Nuclear Orientation (Angstroms)
    I     Atom           X                Y                Z
 ----------------------------------------------------------------
    1      C       0.2467540000    -3.8878000000     0.6811430000
    2      C      -0.2270930000    -3.7014560000    -0.6209060000
    3      C      -0.3715430000    -2.3451700000    -1.0196180000
    4      H      -0.4689920000    -4.5452330000    -1.2843570000
    5      C       0.0000000000    -1.4501350000     0.0000000000
    6      S       0.5220970000    -2.3213340000     1.4355220000
    7      C      -0.8660350000    -1.9344390000    -2.3787310000
    8      H      -1.0937990000    -2.8197990000    -3.0032720000
    9      H      -0.1146880000    -1.3262100000    -2.9244440000
   10      H      -1.7918410000    -1.3253740000    -2.3139870000
   11      H       0.4459110000    -4.8153260000     1.2295470000
   12      C       0.0000000000     0.0000000000     0.0000000000
   13      C       0.2859760000     0.7947230000     1.1130200000
   14      C       0.7573080000     2.1034120000     0.8205780000
   15      H       0.1544980000     0.4295750000     2.1428810000
   16      C       0.8415650000     2.3368210000    -0.5635880000
   17      S       0.3284980000     0.9133340000    -1.4647480000
   18      C       1.1180590000     3.1050400000     1.8823800000
   19      H       0.9661970000     2.6836160000     2.8949740000
   20      H       0.5007730000     4.0246680000     1.8081370000
   21      H       2.1800000000     3.4197660000     1.8082300000
   22      H       1.1661290000     3.2382000000    -1.0971140000
 ----------------------------------------------------------------

   10   -1179.6799876354      5.24e-07  Convergence criterion met
 Total energy in the final basis set =    -1179.6799876354
        RIMP2         total energy =     -1181.6615021849 a.u.

                    Orbital Energies (a.u.)
 --------------------------------------------------------------

 Alpha MOs
 -- Occupied --
-91.9854 -91.9853 -11.2817 -11.2777 -11.2717 -11.2656 -11.2528 -11.2514
-11.2430 -11.2417 -11.2299 -11.2293  -8.9852  -8.9850  -6.6661  -6.6659
 -6.6655  -6.6654  -6.6649  -6.6647  -1.1812  -1.1499  -1.0415  -1.0248
 -0.9989  -0.9521  -0.9148  -0.8948  -0.7992  -0.7643  -0.7207  -0.6947
 -0.6625  -0.6165  -0.5838  -0.5802  -0.5781  -0.5699  -0.5523  -0.5338
 -0.5241  -0.5199  -0.5102  -0.4974  -0.4880  -0.4680  -0.4527  -0.3657
 -0.3434  -0.3410  -0.2706

          Ground-State Mulliken Net Atomic Charges

     Atom                 Charge (a.u.)
  ----------------------------------------
      1 C                    -0.214498
      2 C                    -0.251184
      3 C                     0.044518
      4 H                     0.185212
      5 C                    -0.021633
      6 S                     0.011569
      7 C                    -0.317025
      8 H                     0.115083
      9 H                     0.112501
     10 H                     0.119218
     11 H                     0.205879
     12 C                     0.053904
     13 C                    -0.302608
     14 C                     0.053249
     15 H                     0.179663
     16 C                    -0.257751
     17 S                     0.033891
     18 C                    -0.269190
     19 H                     0.103138
     20 H                     0.108312
     21 H                     0.109212
     22 H                     0.198539
  ----------------------------------------
  Sum of atomic charges =     0.000000

                    Cartesian Multipole Moments
 -----------------------------------------------------------------
    Charge (ESU x 10^10)
                -0.0000
    Dipole Moment (Debye)
         X       0.1370      Y       0.2262      Z       0.0015
       Tot       0.2644
    Quadrupole Moments (Debye-Ang)
        XX     -90.7017     XY       4.3626     YY     -70.0261
        XZ       2.5846     YZ       3.3288     ZZ     -80.6202

 Total job time:  50.96s(wall), 1759.43s(cpu)
        *  Thank you very much for using Q-Chem.  Have a nice day.  *
