 Q-Chem 5.4, Q-Chem, Inc., Pleasanton, CA (2021)
 Q-Chem 5.4.0 for Intel X86 EM64T Linux

User input:
--------------------------------------------------------------
$molecule
0 1
C	-0.124726	-3.887800	-0.713644
C	0.115824	-3.701456	0.650907
C	0.188844	-2.345170	1.068646
H	0.238841	-4.545233	1.346284
C	0.000000	-1.450135	0.000000
S	-0.264890	-2.321334	-1.504375
C	0.439816	-1.934439	2.492978
H	0.555669	-2.819799	3.147582
H	-0.394879	-1.326210	2.899931
H	1.362799	-1.325374	2.589982
H	-0.225628	-4.815326	-1.288299
C	0.000000	0.000000	0.000000
C	0.354153	0.766774	1.113020
C	0.937751	2.029404	0.820578
H	0.191350	0.414475	2.142881
C	1.042030	2.254581	-0.563588
S	0.406851	0.881228	-1.464748
C	1.384426	2.995779	1.882380
H	1.196413	2.589194	2.894974
H	0.849641	3.965707	1.808137
H	2.469756	3.216753	1.808230
H	1.443919	3.124243	-1.097114
$end

$rem
JOBTYPE		SP
EXCHANGE	HF
CORRELATION	pRIMP2
BASIS		cc-pvtz
METHOD		rimp2
AUX_BASIS	rimp2-cc-pvtz
SOLVENT_METHOD	PCM
PURECART	11111
SYMMETRY	false
MEM_TOTAL	110000
SCF_CONVERGENCE = 6
THRESH=10
GUI = 2
$end

$solvent
dielectric 4.90
$end
--------------------------------------------------------------

             Standard Nuclear Orientation (Angstroms)
    I     Atom           X                Y                Z
 ----------------------------------------------------------------
    1      C      -0.1247260000    -3.8878000000    -0.7136440000
    2      C       0.1158240000    -3.7014560000     0.6509070000
    3      C       0.1888440000    -2.3451700000     1.0686460000
    4      H       0.2388410000    -4.5452330000     1.3462840000
    5      C       0.0000000000    -1.4501350000     0.0000000000
    6      S      -0.2648900000    -2.3213340000    -1.5043750000
    7      C       0.4398160000    -1.9344390000     2.4929780000
    8      H       0.5556690000    -2.8197990000     3.1475820000
    9      H      -0.3948790000    -1.3262100000     2.8999310000
   10      H       1.3627990000    -1.3253740000     2.5899820000
   11      H      -0.2256280000    -4.8153260000    -1.2882990000
   12      C       0.0000000000     0.0000000000     0.0000000000
   13      C       0.3541530000     0.7667740000     1.1130200000
   14      C       0.9377510000     2.0294040000     0.8205780000
   15      H       0.1913500000     0.4144750000     2.1428810000
   16      C       1.0420300000     2.2545810000    -0.5635880000
   17      S       0.4068510000     0.8812280000    -1.4647480000
   18      C       1.3844260000     2.9957790000     1.8823800000
   19      H       1.1964130000     2.5891940000     2.8949740000
   20      H       0.8496410000     3.9657070000     1.8081370000
   21      H       2.4697560000     3.2167530000     1.8082300000
   22      H       1.4439190000     3.1242430000    -1.0971140000
 ----------------------------------------------------------------

   10   -1179.6717721690      4.89e-07  Convergence criterion met
 Total energy in the final basis set =    -1179.6717721690
        RIMP2         total energy =     -1181.6553992297 a.u.

                    Orbital Energies (a.u.)
 --------------------------------------------------------------

 Alpha MOs
 -- Occupied --
-91.9852 -91.9835 -11.2801 -11.2791 -11.2706 -11.2685 -11.2526 -11.2509
-11.2433 -11.2422 -11.2310 -11.2300  -8.9851  -8.9836  -6.6660  -6.6655
 -6.6648  -6.6645  -6.6640  -6.6633  -1.1821  -1.1499  -1.0419  -1.0273
 -0.9955  -0.9554  -0.9147  -0.8950  -0.8009  -0.7560  -0.7277  -0.7020
 -0.6601  -0.6148  -0.5928  -0.5825  -0.5705  -0.5624  -0.5509  -0.5407
 -0.5293  -0.5232  -0.5035  -0.4921  -0.4837  -0.4753  -0.4511  -0.3687
 -0.3474  -0.3371  -0.2686

          Ground-State Mulliken Net Atomic Charges

     Atom                 Charge (a.u.)
  ----------------------------------------
      1 C                    -0.218049
      2 C                    -0.248799
      3 C                     0.058285
      4 H                     0.185430
      5 C                    -0.039802
      6 S                     0.008567
      7 C                    -0.310705
      8 H                     0.117816
      9 H                     0.105339
     10 H                     0.112759
     11 H                     0.205913
     12 C                     0.031997
     13 C                    -0.268983
     14 C                     0.041874
     15 H                     0.197479
     16 C                    -0.247207
     17 S                     0.017960
     18 C                    -0.269325
     19 H                     0.101737
     20 H                     0.108916
     21 H                     0.108806
     22 H                     0.199990
  ----------------------------------------
  Sum of atomic charges =     0.000000

                    Cartesian Multipole Moments
 -----------------------------------------------------------------
    Charge (ESU x 10^10)
                -0.0000
    Dipole Moment (Debye)
         X       1.1506      Y       0.3709      Z       3.0270
       Tot       3.2595
    Quadrupole Moments (Debye-Ang)
        XX     -90.5325     XY       3.9013     YY     -70.8724
        XZ       1.6266     YZ      -1.3169     ZZ     -80.2683

 Total job time:  52.25s(wall), 1801.76s(cpu)
        *  Thank you very much for using Q-Chem.  Have a nice day.  *
