 Q-Chem 5.4, Q-Chem, Inc., Pleasanton, CA (2021)
 Q-Chem 5.4.0 for Intel X86 EM64T Linux

User input:
--------------------------------------------------------------
$molecule
0 1
C	-0.554267	-3.887800	-0.466510
C	0.507121	-3.701456	0.424173
C	0.831575	-2.345170	0.697244
H	1.048337	-4.545233	0.877789
C	0.000000	-1.450135	0.000000
S	-1.169911	-2.321334	-0.982150
C	1.939374	-1.934439	1.627024
H	2.448894	-2.819799	2.054010
H	1.561545	-1.326210	2.475299
H	2.708773	-1.325374	1.108051
H	-1.000944	-4.815326	-0.841863
C	0.000000	0.000000	0.000000
C	0.143630	0.832309	1.113020
C	0.380550	2.202961	0.820578
H	0.077556	0.449877	2.142881
C	0.422995	2.447456	-0.563588
S	0.164909	0.956502	-1.464748
C	0.561888	3.252016	1.882380
H	0.485513	2.810624	2.894974
H	-0.205711	4.050482	1.808137
H	1.553045	3.746365	1.808230
H	0.586105	3.391501	-1.097114
$end

$rem
JOBTYPE		SP
EXCHANGE	HF
CORRELATION	pRIMP2
BASIS		cc-pvtz
METHOD		rimp2
AUX_BASIS	rimp2-cc-pvtz
SOLVENT_METHOD	PCM
PURECART	11111
SYMMETRY	false
MEM_TOTAL	110000
SCF_CONVERGENCE = 6
THRESH=10
GUI = 2
$end

$solvent
dielectric 4.90
$end
--------------------------------------------------------------

             Standard Nuclear Orientation (Angstroms)
    I     Atom           X                Y                Z
 ----------------------------------------------------------------
    1      C      -0.5542670000    -3.8878000000    -0.4665100000
    2      C       0.5071210000    -3.7014560000     0.4241730000
    3      C       0.8315750000    -2.3451700000     0.6972440000
    4      H       1.0483370000    -4.5452330000     0.8777890000
    5      C       0.0000000000    -1.4501350000     0.0000000000
    6      S      -1.1699110000    -2.3213340000    -0.9821500000
    7      C       1.9393740000    -1.9344390000     1.6270240000
    8      H       2.4488940000    -2.8197990000     2.0540100000
    9      H       1.5615450000    -1.3262100000     2.4752990000
   10      H       2.7087730000    -1.3253740000     1.1080510000
   11      H      -1.0009440000    -4.8153260000    -0.8418630000
   12      C       0.0000000000     0.0000000000     0.0000000000
   13      C       0.1436300000     0.8323090000     1.1130200000
   14      C       0.3805500000     2.2029610000     0.8205780000
   15      H       0.0775560000     0.4498770000     2.1428810000
   16      C       0.4229950000     2.4474560000    -0.5635880000
   17      S       0.1649090000     0.9565020000    -1.4647480000
   18      C       0.5618880000     3.2520160000     1.8823800000
   19      H       0.4855130000     2.8106240000     2.8949740000
   20      H      -0.2057110000     4.0504820000     1.8081370000
   21      H       1.5530450000     3.7463650000     1.8082300000
   22      H       0.5861050000     3.3915010000    -1.0971140000
 ----------------------------------------------------------------

   10   -1179.6849402425      5.25e-07  Convergence criterion met
 Total energy in the final basis set =    -1179.6849402425
        RIMP2         total energy =     -1181.6639297436 a.u.

                    Orbital Energies (a.u.)
 --------------------------------------------------------------

 Alpha MOs
 -- Occupied --
-91.9859 -91.9851 -11.2803 -11.2759 -11.2729 -11.2650 -11.2539 -11.2517
-11.2431 -11.2409 -11.2295 -11.2293  -8.9854  -8.9848  -6.6663  -6.6658
 -6.6657  -6.6652  -6.6651  -6.6646  -1.1791  -1.1499  -1.0400  -1.0243
 -0.9961  -0.9551  -0.9132  -0.8934  -0.8007  -0.7534  -0.7301  -0.6974
 -0.6617  -0.6159  -0.5857  -0.5803  -0.5704  -0.5647  -0.5514  -0.5350
 -0.5290  -0.5213  -0.5066  -0.4924  -0.4873  -0.4691  -0.4589  -0.3505
 -0.3417  -0.3396  -0.2835

          Ground-State Mulliken Net Atomic Charges

     Atom                 Charge (a.u.)
  ----------------------------------------
      1 C                    -0.212567
      2 C                    -0.250119
      3 C                     0.051641
      4 H                     0.185362
      5 C                    -0.035295
      6 S                     0.020907
      7 C                    -0.285203
      8 H                     0.111932
      9 H                     0.106937
     10 H                     0.114840
     11 H                     0.204818
     12 C                    -0.008985
     13 C                    -0.250006
     14 C                     0.027311
     15 H                     0.191965
     16 C                    -0.243931
     17 S                     0.023353
     18 C                    -0.271190
     19 H                     0.102301
     20 H                     0.108811
     21 H                     0.108311
     22 H                     0.198806
  ----------------------------------------
  Sum of atomic charges =     0.000000

                    Cartesian Multipole Moments
 -----------------------------------------------------------------
    Charge (ESU x 10^10)
                -0.0000
    Dipole Moment (Debye)
         X       1.4987      Y       0.2127      Z       2.4713
       Tot       2.8981
    Quadrupole Moments (Debye-Ang)
        XX     -88.5782     XY       0.1650     YY     -68.9073
        XZ       3.4490     YZ      -0.3179     ZZ     -84.0319

 Total job time:  53.22s(wall), 1816.79s(cpu)
        *  Thank you very much for using Q-Chem.  Have a nice day.  *
