 Q-Chem 5.4, Q-Chem, Inc., Pleasanton, CA (2021)
 Q-Chem 5.4.0 for Intel X86 EM64T Linux

User input:
--------------------------------------------------------------
$molecule
0 1
C	-0.724460	-3.887800	-0.001092
C	0.661131	-3.701456	-0.001036
C	1.085203	-2.345170	-0.000406
H	1.367305	-4.545233	-0.001433
C	0.000000	-1.450135	0.000000
S	-1.527517	-2.321334	-0.000367
C	2.531478	-1.934439	-0.000233
H	3.196254	-2.819799	-0.000656
H	2.787305	-1.326210	0.892447
H	2.787282	-1.325374	-0.892350
H	-1.307907	-4.815326	-0.001511
C	0.000000	0.000000	0.000000
C	0.729909	0.424971	1.113020
C	1.932179	1.124518	0.820578
H	0.394478	0.229765	2.142881
C	2.146756	1.249161	-0.563588
S	0.838724	0.488500	-1.464748
C	2.852364	1.659924	1.882380
H	2.465145	1.434710	2.894974
H	2.970621	2.761183	1.808137
H	3.868160	1.218416	1.808230
H	2.974781	1.731032	-1.097114
$end

$rem
JOBTYPE		SP
EXCHANGE	HF
CORRELATION	pRIMP2
BASIS		cc-pvtz
METHOD		rimp2
AUX_BASIS	rimp2-cc-pvtz
SOLVENT_METHOD	PCM
PURECART	11111
SYMMETRY	false
MEM_TOTAL	110000
SCF_CONVERGENCE = 6
THRESH=10
GUI = 2
$end

$solvent
dielectric 4.90
$end
--------------------------------------------------------------

             Standard Nuclear Orientation (Angstroms)
    I     Atom           X                Y                Z
 ----------------------------------------------------------------
    1      C      -0.7244600000    -3.8878000000    -0.0010920000
    2      C       0.6611310000    -3.7014560000    -0.0010360000
    3      C       1.0852030000    -2.3451700000    -0.0004060000
    4      H       1.3673050000    -4.5452330000    -0.0014330000
    5      C       0.0000000000    -1.4501350000     0.0000000000
    6      S      -1.5275170000    -2.3213340000    -0.0003670000
    7      C       2.5314780000    -1.9344390000    -0.0002330000
    8      H       3.1962540000    -2.8197990000    -0.0006560000
    9      H       2.7873050000    -1.3262100000     0.8924470000
   10      H       2.7872820000    -1.3253740000    -0.8923500000
   11      H      -1.3079070000    -4.8153260000    -0.0015110000
   12      C       0.0000000000     0.0000000000     0.0000000000
   13      C       0.7299090000     0.4249710000     1.1130200000
   14      C       1.9321790000     1.1245180000     0.8205780000
   15      H       0.3944780000     0.2297650000     2.1428810000
   16      C       2.1467560000     1.2491610000    -0.5635880000
   17      S       0.8387240000     0.4885000000    -1.4647480000
   18      C       2.8523640000     1.6599240000     1.8823800000
   19      H       2.4651450000     1.4347100000     2.8949740000
   20      H       2.9706210000     2.7611830000     1.8081370000
   21      H       3.8681600000     1.2184160000     1.8082300000
   22      H       2.9747810000     1.7310320000    -1.0971140000
 ----------------------------------------------------------------

   11   -1179.6116928997      5.02e-07  Convergence criterion met
 Total energy in the final basis set =    -1179.6116928997
        RIMP2         total energy =     -1181.6115510602 a.u.

                    Orbital Energies (a.u.)
 --------------------------------------------------------------

 Alpha MOs
 -- Occupied --
-91.9829 -91.9743 -11.2884 -11.2744 -11.2659 -11.2615 -11.2523 -11.2508
-11.2404 -11.2371 -11.2320 -11.2220  -8.9833  -8.9744  -6.6640  -6.6632
 -6.6629  -6.6553  -6.6547  -6.6541  -1.1906  -1.1446  -1.0453  -1.0159
 -1.0010  -0.9522  -0.9137  -0.8880  -0.7939  -0.7514  -0.7400  -0.6940
 -0.6546  -0.6217  -0.5865  -0.5841  -0.5738  -0.5654  -0.5476  -0.5350
 -0.5244  -0.5229  -0.5130  -0.4869  -0.4674  -0.4629  -0.4415  -0.3533
 -0.3364  -0.3173  -0.2924

          Ground-State Mulliken Net Atomic Charges

     Atom                 Charge (a.u.)
  ----------------------------------------
      1 C                    -0.224422
      2 C                    -0.257697
      3 C                     0.050307
      4 H                     0.182894
      5 C                    -0.000104
      6 S                    -0.002322
      7 C                    -0.337150
      8 H                     0.120629
      9 H                     0.117724
     10 H                     0.118543
     11 H                     0.198657
     12 C                    -0.153342
     13 C                    -0.124216
     14 C                    -0.003357
     15 H                     0.191761
     16 C                    -0.177265
     17 S                     0.040569
     18 C                    -0.271225
     19 H                     0.105480
     20 H                     0.116933
     21 H                     0.105059
     22 H                     0.202543
  ----------------------------------------
  Sum of atomic charges =     0.000000

                    Cartesian Multipole Moments
 -----------------------------------------------------------------
    Charge (ESU x 10^10)
                -0.0000
    Dipole Moment (Debye)
         X       4.4068      Y       0.8350      Z       1.6875
       Tot       4.7922
    Quadrupole Moments (Debye-Ang)
        XX     -77.3446     XY       3.1419     YY     -80.6306
        XZ       0.5521     YZ       0.6964     ZZ     -85.7706

 Total job time:  57.20s(wall), 1987.23s(cpu)
        *  Thank you very much for using Q-Chem.  Have a nice day.  *
