 Q-Chem 5.4, Q-Chem, Inc., Pleasanton, CA (2021)
 Q-Chem 5.4.0 for Intel X86 EM64T Linux

User input:
--------------------------------------------------------------
$molecule
0 1
C	0.126876	-3.887800	-0.713264
C	-0.113784	-3.701456	0.651267
C	-0.188043	-2.345170	1.068787
H	-0.236019	-4.545233	1.346782
C	-0.000000	-1.450135	-0.000000
S	0.265612	-2.321334	-1.504247
C	-0.439357	-1.934439	2.493059
H	-0.554378	-2.819799	3.147809
H	-1.362899	-1.326210	2.589987
H	0.394786	-1.325374	2.899892
H	0.228603	-4.815326	-1.287774
C	0.000000	0.000000	0.000000
C	0.215623	0.816623	1.113020
C	0.571102	2.161411	0.820578
H	0.116470	0.441406	2.142881
C	0.634696	2.401276	-0.563588
S	0.247646	0.938489	-1.464748
C	0.843182	3.190669	1.882380
H	0.728628	2.757614	2.894974
H	0.148095	4.052998	1.808137
H	1.873652	3.596752	1.808230
H	0.879464	3.327513	-1.097114
$end

$rem
JOBTYPE		SP
EXCHANGE	HF
CORRELATION	pRIMP2
BASIS		cc-pvtz
METHOD		rimp2
AUX_BASIS	rimp2-cc-pvtz
SOLVENT_METHOD	PCM
PURECART	11111
SYMMETRY	false
MEM_TOTAL	110000
SCF_CONVERGENCE = 6
THRESH=10
GUI = 2
$end

$solvent
dielectric 4.90
$end
--------------------------------------------------------------

             Standard Nuclear Orientation (Angstroms)
    I     Atom           X                Y                Z
 ----------------------------------------------------------------
    1      C       0.1268760000    -3.8878000000    -0.7132640000
    2      C      -0.1137840000    -3.7014560000     0.6512670000
    3      C      -0.1880430000    -2.3451700000     1.0687870000
    4      H      -0.2360190000    -4.5452330000     1.3467820000
    5      C       0.0000000000    -1.4501350000     0.0000000000
    6      S       0.2656120000    -2.3213340000    -1.5042470000
    7      C      -0.4393570000    -1.9344390000     2.4930590000
    8      H      -0.5543780000    -2.8197990000     3.1478090000
    9      H      -1.3628990000    -1.3262100000     2.5899870000
   10      H       0.3947860000    -1.3253740000     2.8998920000
   11      H       0.2286030000    -4.8153260000    -1.2877740000
   12      C       0.0000000000     0.0000000000     0.0000000000
   13      C       0.2156230000     0.8166230000     1.1130200000
   14      C       0.5711020000     2.1614110000     0.8205780000
   15      H       0.1164700000     0.4414060000     2.1428810000
   16      C       0.6346960000     2.4012760000    -0.5635880000
   17      S       0.2476460000     0.9384890000    -1.4647480000
   18      C       0.8431820000     3.1906690000     1.8823800000
   19      H       0.7286280000     2.7576140000     2.8949740000
   20      H       0.1480950000     4.0529980000     1.8081370000
   21      H       1.8736520000     3.5967520000     1.8082300000
   22      H       0.8794640000     3.3275130000    -1.0971140000
 ----------------------------------------------------------------

   10   -1179.6805415471      4.86e-07  Convergence criterion met
 Total energy in the final basis set =    -1179.6805415471
        RIMP2         total energy =     -1181.6617010022 a.u.

                    Orbital Energies (a.u.)
 --------------------------------------------------------------

 Alpha MOs
 -- Occupied --
-91.9862 -91.9855 -11.2833 -11.2796 -11.2718 -11.2658 -11.2526 -11.2523
-11.2440 -11.2404 -11.2314 -11.2297  -8.9859  -8.9854  -6.6669  -6.6663
 -6.6663  -6.6658  -6.6657  -6.6651  -1.1815  -1.1504  -1.0415  -1.0275
 -0.9957  -0.9561  -0.9147  -0.8951  -0.8022  -0.7561  -0.7274  -0.7014
 -0.6614  -0.6147  -0.5920  -0.5825  -0.5703  -0.5627  -0.5514  -0.5404
 -0.5302  -0.5228  -0.5035  -0.4916  -0.4876  -0.4770  -0.4514  -0.3700
 -0.3474  -0.3375  -0.2692

          Ground-State Mulliken Net Atomic Charges

     Atom                 Charge (a.u.)
  ----------------------------------------
      1 C                    -0.216597
      2 C                    -0.251063
      3 C                     0.064359
      4 H                     0.185201
      5 C                    -0.046014
      6 S                     0.008817
      7 C                    -0.315144
      8 H                     0.119061
      9 H                     0.114842
     10 H                     0.104491
     11 H                     0.206651
     12 C                     0.032081
     13 C                    -0.232784
     14 C                     0.021094
     15 H                     0.194320
     16 C                    -0.243732
     17 S                     0.005587
     18 C                    -0.270858
     19 H                     0.101269
     20 H                     0.108707
     21 H                     0.108956
     22 H                     0.200756
  ----------------------------------------
  Sum of atomic charges =     0.000000

                    Cartesian Multipole Moments
 -----------------------------------------------------------------
    Charge (ESU x 10^10)
                -0.0000
    Dipole Moment (Debye)
         X       0.2395      Y       0.2499      Z       2.9602
       Tot       2.9804
    Quadrupole Moments (Debye-Ang)
        XX     -91.8473     XY       3.1560     YY     -69.2696
        XZ      -0.8474     YZ      -1.1999     ZZ     -80.2257

 Total job time:  50.27s(wall), 1772.47s(cpu)
        *  Thank you very much for using Q-Chem.  Have a nice day.  *
