 Q-Chem 5.4, Q-Chem, Inc., Pleasanton, CA (2021)
 Q-Chem 5.4.0 for Intel X86 EM64T Linux

User input:
--------------------------------------------------------------
$molecule
0 1
C	-0.713264	-3.887800	-0.126876
C	0.651267	-3.701456	0.113784
C	1.068787	-2.345170	0.188043
H	1.346782	-4.545233	0.236019
C	0.000000	-1.450135	0.000000
S	-1.504247	-2.321334	-0.265612
C	2.493059	-1.934439	0.439357
H	3.147809	-2.819799	0.554378
H	2.589987	-1.326210	1.362899
H	2.899892	-1.325374	-0.394786
H	-1.287774	-4.815326	-0.228603
C	0.000000	0.000000	0.000000
C	0.645024	0.545262	1.113020
C	1.707554	1.442954	0.820578
H	0.348587	0.294774	2.142881
C	1.897227	1.602964	-0.563588
S	0.741155	0.626722	-1.464748
C	2.520787	2.130014	1.882380
H	2.178559	1.840981	2.894974
H	2.446016	3.235078	1.808137
H	3.597818	1.871604	1.808230
H	2.628997	2.221299	-1.097114
$end

$rem
JOBTYPE		SP
EXCHANGE	HF
CORRELATION	pRIMP2
BASIS		cc-pvtz
METHOD		rimp2
AUX_BASIS	rimp2-cc-pvtz
SOLVENT_METHOD	PCM
PURECART	11111
SYMMETRY	false
MEM_TOTAL	110000
SCF_CONVERGENCE = 6
THRESH=10
GUI = 2
$end

$solvent
dielectric 4.90
$end
--------------------------------------------------------------

             Standard Nuclear Orientation (Angstroms)
    I     Atom           X                Y                Z
 ----------------------------------------------------------------
    1      C      -0.7132640000    -3.8878000000    -0.1268760000
    2      C       0.6512670000    -3.7014560000     0.1137840000
    3      C       1.0687870000    -2.3451700000     0.1880430000
    4      H       1.3467820000    -4.5452330000     0.2360190000
    5      C       0.0000000000    -1.4501350000     0.0000000000
    6      S      -1.5042470000    -2.3213340000    -0.2656120000
    7      C       2.4930590000    -1.9344390000     0.4393570000
    8      H       3.1478090000    -2.8197990000     0.5543780000
    9      H       2.5899870000    -1.3262100000     1.3628990000
   10      H       2.8998920000    -1.3253740000    -0.3947860000
   11      H      -1.2877740000    -4.8153260000    -0.2286030000
   12      C       0.0000000000     0.0000000000     0.0000000000
   13      C       0.6450240000     0.5452620000     1.1130200000
   14      C       1.7075540000     1.4429540000     0.8205780000
   15      H       0.3485870000     0.2947740000     2.1428810000
   16      C       1.8972270000     1.6029640000    -0.5635880000
   17      S       0.7411550000     0.6267220000    -1.4647480000
   18      C       2.5207870000     2.1300140000     1.8823800000
   19      H       2.1785590000     1.8409810000     2.8949740000
   20      H       2.4460160000     3.2350780000     1.8081370000
   21      H       3.5978180000     1.8716040000     1.8082300000
   22      H       2.6289970000     2.2212990000    -1.0971140000
 ----------------------------------------------------------------

   10   -1179.6385896728      9.54e-07  Convergence criterion met
 Total energy in the final basis set =    -1179.6385896728
        RIMP2         total energy =     -1181.6310868231 a.u.

                    Orbital Energies (a.u.)
 --------------------------------------------------------------

 Alpha MOs
 -- Occupied --
-91.9835 -91.9767 -11.2820 -11.2730 -11.2651 -11.2591 -11.2574 -11.2522
-11.2451 -11.2386 -11.2312 -11.2257  -8.9836  -8.9767  -6.6644  -6.6637
 -6.6633  -6.6576  -6.6570  -6.6565  -1.1849  -1.1465  -1.0429  -1.0183
 -0.9984  -0.9527  -0.9130  -0.8901  -0.7948  -0.7501  -0.7379  -0.6950
 -0.6565  -0.6193  -0.5845  -0.5818  -0.5718  -0.5676  -0.5489  -0.5334
 -0.5252  -0.5229  -0.5120  -0.4884  -0.4697  -0.4644  -0.4517  -0.3483
 -0.3381  -0.3194  -0.2966

          Ground-State Mulliken Net Atomic Charges

     Atom                 Charge (a.u.)
  ----------------------------------------
      1 C                    -0.218457
      2 C                    -0.257601
      3 C                     0.057956
      4 H                     0.183780
      5 C                    -0.015010
      6 S                     0.005869
      7 C                    -0.313338
      8 H                     0.118501
      9 H                     0.111830
     10 H                     0.115316
     11 H                     0.200406
     12 C                    -0.106717
     13 C                    -0.192895
     14 C                     0.032824
     15 H                     0.191989
     16 C                    -0.208749
     17 S                     0.037863
     18 C                    -0.269531
     19 H                     0.104283
     20 H                     0.113654
     21 H                     0.106325
     22 H                     0.201702
  ----------------------------------------
  Sum of atomic charges =     0.000000

                    Cartesian Multipole Moments
 -----------------------------------------------------------------
    Charge (ESU x 10^10)
                -0.0000
    Dipole Moment (Debye)
         X       3.7321      Y       0.7642      Z       1.9125
       Tot       4.2627
    Quadrupole Moments (Debye-Ang)
        XX     -79.7596     XY       3.6080     YY     -77.3040
        XZ       1.6709     YZ       0.2887     ZZ     -85.9928

 Total job time:  54.88s(wall), 1872.50s(cpu)
        *  Thank you very much for using Q-Chem.  Have a nice day.  *
