 Q-Chem 5.4, Q-Chem, Inc., Pleasanton, CA (2021)
 Q-Chem 5.4.0 for Intel X86 EM64T Linux

User input:
--------------------------------------------------------------
$molecule
0 1
C	0.363176	-3.887800	-0.626855
C	-0.329669	-3.701456	0.573074
C	-0.542250	-2.345170	0.940016
H	-0.682412	-4.545233	1.184837
C	-0.000000	-1.450135	-0.000000
S	0.764076	-2.321334	-1.322686
C	-1.265537	-1.934439	2.192440
H	-1.597559	-2.819799	2.768365
H	-2.166534	-1.326210	1.967653
H	-0.620843	-1.325374	2.860032
H	0.655262	-4.815326	-1.131925
C	0.000000	0.000000	0.000000
C	0.540541	0.648986	1.113020
C	1.431046	1.717546	0.820578
H	0.292104	0.350827	2.142881
C	1.590053	1.908061	-0.563588
S	0.621066	0.745901	-1.464748
C	2.112618	2.535384	1.882380
H	1.825779	2.191315	2.894974
H	1.847090	3.610676	1.808137
H	3.218159	2.467925	1.808230
H	2.203332	2.644073	-1.097114
$end

$rem
JOBTYPE		SP
EXCHANGE	HF
CORRELATION	pRIMP2
BASIS		cc-pvtz
METHOD		rimp2
AUX_BASIS	rimp2-cc-pvtz
SOLVENT_METHOD	PCM
PURECART	11111
SYMMETRY	false
MEM_TOTAL	110000
SCF_CONVERGENCE = 6
THRESH=10
GUI = 2
$end

$solvent
dielectric 4.90
$end
--------------------------------------------------------------

             Standard Nuclear Orientation (Angstroms)
    I     Atom           X                Y                Z
 ----------------------------------------------------------------
    1      C       0.3631760000    -3.8878000000    -0.6268550000
    2      C      -0.3296690000    -3.7014560000     0.5730740000
    3      C      -0.5422500000    -2.3451700000     0.9400160000
    4      H      -0.6824120000    -4.5452330000     1.1848370000
    5      C       0.0000000000    -1.4501350000     0.0000000000
    6      S       0.7640760000    -2.3213340000    -1.3226860000
    7      C      -1.2655370000    -1.9344390000     2.1924400000
    8      H      -1.5975590000    -2.8197990000     2.7683650000
    9      H      -2.1665340000    -1.3262100000     1.9676530000
   10      H      -0.6208430000    -1.3253740000     2.8600320000
   11      H       0.6552620000    -4.8153260000    -1.1319250000
   12      C       0.0000000000     0.0000000000     0.0000000000
   13      C       0.5405410000     0.6489860000     1.1130200000
   14      C       1.4310460000     1.7175460000     0.8205780000
   15      H       0.2921040000     0.3508270000     2.1428810000
   16      C       1.5900530000     1.9080610000    -0.5635880000
   17      S       0.6210660000     0.7459010000    -1.4647480000
   18      C       2.1126180000     2.5353840000     1.8823800000
   19      H       1.8257790000     2.1913150000     2.8949740000
   20      H       1.8470900000     3.6106760000     1.8081370000
   21      H       3.2181590000     2.4679250000     1.8082300000
   22      H       2.2033320000     2.6440730000    -1.0971140000
 ----------------------------------------------------------------

   10   -1179.6542849921      7.06e-07  Convergence criterion met
 Total energy in the final basis set =    -1179.6542849921
        RIMP2         total energy =     -1181.6414782756 a.u.

                    Orbital Energies (a.u.)
 --------------------------------------------------------------

 Alpha MOs
 -- Occupied --
-91.9863 -91.9819 -11.2788 -11.2775 -11.2735 -11.2616 -11.2551 -11.2532
-11.2409 -11.2397 -11.2311 -11.2280  -8.9864  -8.9817  -6.6673  -6.6667
 -6.6662  -6.6625  -6.6619  -6.6613  -1.1849  -1.1481  -1.0440  -1.0226
 -0.9965  -0.9559  -0.9110  -0.8940  -0.8008  -0.7531  -0.7313  -0.6983
 -0.6574  -0.6166  -0.5918  -0.5812  -0.5703  -0.5622  -0.5505  -0.5394
 -0.5318  -0.5190  -0.5065  -0.4897  -0.4817  -0.4717  -0.4509  -0.3669
 -0.3423  -0.3366  -0.2688

          Ground-State Mulliken Net Atomic Charges

     Atom                 Charge (a.u.)
  ----------------------------------------
      1 C                    -0.243271
      2 C                    -0.242402
      3 C                     0.020171
      4 H                     0.182762
      5 C                    -0.006457
      6 S                     0.015647
      7 C                    -0.303261
      8 H                     0.111577
      9 H                     0.112221
     10 H                     0.099870
     11 H                     0.202374
     12 C                    -0.040384
     13 C                    -0.167095
     14 C                     0.001359
     15 H                     0.196782
     16 C                    -0.203905
     17 S                     0.011627
     18 C                    -0.268812
     19 H                     0.102007
     20 H                     0.108781
     21 H                     0.108054
     22 H                     0.202354
  ----------------------------------------
  Sum of atomic charges =     0.000000

                    Cartesian Multipole Moments
 -----------------------------------------------------------------
    Charge (ESU x 10^10)
                -0.0000
    Dipole Moment (Debye)
         X       0.9888      Y       1.1069      Z       2.7781
       Tot       3.1497
    Quadrupole Moments (Debye-Ang)
        XX     -86.1648     XY       7.1154     YY     -75.5421
        XZ      -2.0108     YZ      -1.2240     ZZ     -81.6451

 Total job time:  53.28s(wall), 1868.53s(cpu)
        *  Thank you very much for using Q-Chem.  Have a nice day.  *
