 Q-Chem 5.4, Q-Chem, Inc., Pleasanton, CA (2021)
 Q-Chem 5.4.0 for Intel X86 EM64T Linux

User input:
--------------------------------------------------------------
$molecule
0 1
C	0.627947	-3.887800	-0.361285
C	-0.572038	-3.701456	0.331462
C	-0.939610	-2.345170	0.542953
H	-1.183405	-4.545233	0.684893
C	0.000000	-1.450135	0.000000
S	1.323052	-2.321334	-0.763441
C	-2.192207	-1.934439	1.265941
H	-2.767709	-2.819799	1.598695
H	-2.860100	-1.326210	0.620770
H	-1.967682	-1.325374	2.166438
H	1.133436	-4.815326	-0.652645
C	0.000000	0.000000	0.000000
C	0.354153	0.766774	1.113020
C	0.937751	2.029404	0.820578
H	0.191350	0.414475	2.142881
C	1.042030	2.254581	-0.563588
S	0.406851	0.881228	-1.464748
C	1.384426	2.995779	1.882380
H	1.196413	2.589194	2.894974
H	0.849641	3.965707	1.808137
H	2.469756	3.216753	1.808230
H	1.443919	3.124243	-1.097114
$end

$rem
JOBTYPE		SP
EXCHANGE	HF
CORRELATION	pRIMP2
BASIS		cc-pvtz
METHOD		rimp2
AUX_BASIS	rimp2-cc-pvtz
SOLVENT_METHOD	PCM
PURECART	11111
SYMMETRY	false
MEM_TOTAL	110000
SCF_CONVERGENCE = 6
THRESH=10
GUI = 2
$end

$solvent
dielectric 4.90
$end
--------------------------------------------------------------

             Standard Nuclear Orientation (Angstroms)
    I     Atom           X                Y                Z
 ----------------------------------------------------------------
    1      C       0.6279470000    -3.8878000000    -0.3612850000
    2      C      -0.5720380000    -3.7014560000     0.3314620000
    3      C      -0.9396100000    -2.3451700000     0.5429530000
    4      H      -1.1834050000    -4.5452330000     0.6848930000
    5      C       0.0000000000    -1.4501350000     0.0000000000
    6      S       1.3230520000    -2.3213340000    -0.7634410000
    7      C      -2.1922070000    -1.9344390000     1.2659410000
    8      H      -2.7677090000    -2.8197990000     1.5986950000
    9      H      -2.8601000000    -1.3262100000     0.6207700000
   10      H      -1.9676820000    -1.3253740000     2.1664380000
   11      H       1.1334360000    -4.8153260000    -0.6526450000
   12      C       0.0000000000     0.0000000000     0.0000000000
   13      C       0.3541530000     0.7667740000     1.1130200000
   14      C       0.9377510000     2.0294040000     0.8205780000
   15      H       0.1913500000     0.4144750000     2.1428810000
   16      C       1.0420300000     2.2545810000    -0.5635880000
   17      S       0.4068510000     0.8812280000    -1.4647480000
   18      C       1.3844260000     2.9957790000     1.8823800000
   19      H       1.1964130000     2.5891940000     2.8949740000
   20      H       0.8496410000     3.9657070000     1.8081370000
   21      H       2.4697560000     3.2167530000     1.8082300000
   22      H       1.4439190000     3.1242430000    -1.0971140000
 ----------------------------------------------------------------

   10   -1179.6748448547      5.08e-07  Convergence criterion met
 Total energy in the final basis set =    -1179.6748448547
        RIMP2         total energy =     -1181.6555045752 a.u.

                    Orbital Energies (a.u.)
 --------------------------------------------------------------

 Alpha MOs
 -- Occupied --
-91.9860 -91.9842 -11.2766 -11.2747 -11.2694 -11.2690 -11.2521 -11.2487
-11.2454 -11.2411 -11.2297 -11.2285  -8.9856  -8.9839  -6.6665  -6.6659
 -6.6654  -6.6647  -6.6642  -6.6635  -1.1798  -1.1492  -1.0406  -1.0223
 -0.9962  -0.9549  -0.9118  -0.8929  -0.8002  -0.7510  -0.7323  -0.6950
 -0.6605  -0.6165  -0.5845  -0.5796  -0.5696  -0.5670  -0.5512  -0.5331
 -0.5301  -0.5191  -0.5078  -0.4912  -0.4826  -0.4695  -0.4596  -0.3535
 -0.3391  -0.3315  -0.2866

          Ground-State Mulliken Net Atomic Charges

     Atom                 Charge (a.u.)
  ----------------------------------------
      1 C                    -0.214868
      2 C                    -0.250979
      3 C                     0.045278
      4 H                     0.183813
      5 C                    -0.045504
      6 S                     0.026047
      7 C                    -0.286152
      8 H                     0.107414
      9 H                     0.110565
     10 H                     0.107098
     11 H                     0.203673
     12 C                    -0.024381
     13 C                    -0.203281
     14 C                     0.012901
     15 H                     0.189166
     16 C                    -0.223616
     17 S                     0.015868
     18 C                    -0.270598
     19 H                     0.102610
     20 H                     0.108032
     21 H                     0.108107
     22 H                     0.198807
  ----------------------------------------
  Sum of atomic charges =     0.000000

                    Cartesian Multipole Moments
 -----------------------------------------------------------------
    Charge (ESU x 10^10)
                -0.0000
    Dipole Moment (Debye)
         X      -0.3652      Y       0.5278      Z       2.2564
       Tot       2.3459
    Quadrupole Moments (Debye-Ang)
        XX     -85.9285     XY       6.1865     YY     -71.3452
        XZ      -2.2991     YZ      -0.1582     ZZ     -84.9365

 Total job time:  53.15s(wall), 1850.94s(cpu)
        *  Thank you very much for using Q-Chem.  Have a nice day.  *
