 Q-Chem 5.4, Q-Chem, Inc., Pleasanton, CA (2021)
 Q-Chem 5.4.0 for Intel X86 EM64T Linux

User input:
--------------------------------------------------------------
$molecule
0 1
C	0.680396	-3.887800	0.248806
C	-0.621614	-3.701456	-0.225147
C	-1.019896	-2.345170	-0.370780
H	-1.285337	-4.545233	-0.466300
C	0.000000	-1.450135	0.000000
S	1.435271	-2.321334	0.522786
C	-2.378891	-1.934439	-0.865597
H	-3.003720	-2.819799	-1.092567
H	-2.313975	-1.326210	-1.791940
H	-2.924390	-1.325374	-0.114772
H	1.228514	-4.815326	0.448750
C	0.000000	0.000000	0.000000
C	0.143630	0.832309	1.113020
C	0.380550	2.202961	0.820578
H	0.077556	0.449877	2.142881
C	0.422995	2.447456	-0.563588
S	0.164909	0.956502	-1.464748
C	0.561888	3.252016	1.882380
H	0.485513	2.810624	2.894974
H	-0.205711	4.050482	1.808137
H	1.553045	3.746365	1.808230
H	0.586105	3.391501	-1.097114
$end

$rem
JOBTYPE		SP
EXCHANGE	HF
CORRELATION	pRIMP2
BASIS		cc-pvtz
METHOD		rimp2
AUX_BASIS	rimp2-cc-pvtz
SOLVENT_METHOD	PCM
PURECART	11111
SYMMETRY	false
MEM_TOTAL	110000
SCF_CONVERGENCE = 6
THRESH=10
GUI = 2
$end

$solvent
dielectric 4.90
$end
--------------------------------------------------------------

             Standard Nuclear Orientation (Angstroms)
    I     Atom           X                Y                Z
 ----------------------------------------------------------------
    1      C       0.6803960000    -3.8878000000     0.2488060000
    2      C      -0.6216140000    -3.7014560000    -0.2251470000
    3      C      -1.0198960000    -2.3451700000    -0.3707800000
    4      H      -1.2853370000    -4.5452330000    -0.4663000000
    5      C       0.0000000000    -1.4501350000     0.0000000000
    6      S       1.4352710000    -2.3213340000     0.5227860000
    7      C      -2.3788910000    -1.9344390000    -0.8655970000
    8      H      -3.0037200000    -2.8197990000    -1.0925670000
    9      H      -2.3139750000    -1.3262100000    -1.7919400000
   10      H      -2.9243900000    -1.3253740000    -0.1147720000
   11      H       1.2285140000    -4.8153260000     0.4487500000
   12      C       0.0000000000     0.0000000000     0.0000000000
   13      C       0.1436300000     0.8323090000     1.1130200000
   14      C       0.3805500000     2.2029610000     0.8205780000
   15      H       0.0775560000     0.4498770000     2.1428810000
   16      C       0.4229950000     2.4474560000    -0.5635880000
   17      S       0.1649090000     0.9565020000    -1.4647480000
   18      C       0.5618880000     3.2520160000     1.8823800000
   19      H       0.4855130000     2.8106240000     2.8949740000
   20      H      -0.2057110000     4.0504820000     1.8081370000
   21      H       1.5530450000     3.7463650000     1.8082300000
   22      H       0.5861050000     3.3915010000    -1.0971140000
 ----------------------------------------------------------------

   10   -1179.6850448926      5.08e-07  Convergence criterion met
 Total energy in the final basis set =    -1179.6850448926
        RIMP2         total energy =     -1181.6628267978 a.u.

                    Orbital Energies (a.u.)
 --------------------------------------------------------------

 Alpha MOs
 -- Occupied --
-91.9858 -91.9853 -11.2790 -11.2734 -11.2728 -11.2654 -11.2529 -11.2510
-11.2421 -11.2418 -11.2291 -11.2290  -8.9853  -8.9848  -6.6662  -6.6657
 -6.6656  -6.6651  -6.6650  -6.6645  -1.1781  -1.1496  -1.0393  -1.0228
 -0.9974  -0.9531  -0.9137  -0.8924  -0.7996  -0.7563  -0.7274  -0.6939
 -0.6622  -0.6166  -0.5825  -0.5788  -0.5718  -0.5693  -0.5515  -0.5321
 -0.5274  -0.5191  -0.5071  -0.4936  -0.4882  -0.4657  -0.4614  -0.3454
 -0.3397  -0.3291  -0.2966

          Ground-State Mulliken Net Atomic Charges

     Atom                 Charge (a.u.)
  ----------------------------------------
      1 C                    -0.209460
      2 C                    -0.250830
      3 C                     0.043425
      4 H                     0.184970
      5 C                    -0.046501
      6 S                     0.025898
      7 C                    -0.283387
      8 H                     0.107302
      9 H                     0.109421
     10 H                     0.110885
     11 H                     0.204280
     12 C                     0.004071
     13 C                    -0.245844
     14 C                     0.026066
     15 H                     0.186887
     16 C                    -0.238899
     17 S                     0.025024
     18 C                    -0.270905
     19 H                     0.102887
     20 H                     0.107861
     21 H                     0.108396
     22 H                     0.198453
  ----------------------------------------
  Sum of atomic charges =     0.000000

                    Cartesian Multipole Moments
 -----------------------------------------------------------------
    Charge (ESU x 10^10)
                -0.0000
    Dipole Moment (Debye)
         X      -1.0856      Y       0.2354      Z       0.9482
       Tot       1.4605
    Quadrupole Moments (Debye-Ang)
        XX     -86.5668     XY       3.9294     YY     -69.0287
        XZ       2.3678     YZ       1.8861     ZZ     -85.9454

 Total job time:  56.25s(wall), 1835.61s(cpu)
        *  Thank you very much for using Q-Chem.  Have a nice day.  *
