 Q-Chem 5.4, Q-Chem, Inc., Pleasanton, CA (2021)
 Q-Chem 5.4.0 for Intel X86 EM64T Linux

User input:
--------------------------------------------------------------
$molecule
0 1
C	-0.363176	-3.887800	0.626855
C	0.329669	-3.701456	-0.573074
C	0.542250	-2.345170	-0.940016
H	0.682412	-4.545233	-1.184837
C	0.000000	-1.450135	0.000000
S	-0.764076	-2.321334	1.322686
C	1.265537	-1.934439	-2.192440
H	1.597559	-2.819799	-2.768365
H	2.166534	-1.326210	-1.967653
H	0.620843	-1.325374	-2.860032
H	-0.655262	-4.815326	1.131925
C	0.000000	0.000000	0.000000
C	0.729909	0.424971	1.113020
C	1.932179	1.124518	0.820578
H	0.394478	0.229765	2.142881
C	2.146756	1.249161	-0.563588
S	0.838724	0.488500	-1.464748
C	2.852364	1.659924	1.882380
H	2.465145	1.434710	2.894974
H	2.970621	2.761183	1.808137
H	3.868160	1.218416	1.808230
H	2.974781	1.731032	-1.097114
$end

$rem
JOBTYPE		SP
EXCHANGE	HF
CORRELATION	pRIMP2
BASIS		cc-pvtz
METHOD		rimp2
AUX_BASIS	rimp2-cc-pvtz
SOLVENT_METHOD	PCM
PURECART	11111
SYMMETRY	false
MEM_TOTAL	110000
SCF_CONVERGENCE = 6
THRESH=10
GUI = 2
$end

$solvent
dielectric 4.90
$end
--------------------------------------------------------------

             Standard Nuclear Orientation (Angstroms)
    I     Atom           X                Y                Z
 ----------------------------------------------------------------
    1      C      -0.3631760000    -3.8878000000     0.6268550000
    2      C       0.3296690000    -3.7014560000    -0.5730740000
    3      C       0.5422500000    -2.3451700000    -0.9400160000
    4      H       0.6824120000    -4.5452330000    -1.1848370000
    5      C       0.0000000000    -1.4501350000     0.0000000000
    6      S      -0.7640760000    -2.3213340000     1.3226860000
    7      C       1.2655370000    -1.9344390000    -2.1924400000
    8      H       1.5975590000    -2.8197990000    -2.7683650000
    9      H       2.1665340000    -1.3262100000    -1.9676530000
   10      H       0.6208430000    -1.3253740000    -2.8600320000
   11      H      -0.6552620000    -4.8153260000     1.1319250000
   12      C       0.0000000000     0.0000000000     0.0000000000
   13      C       0.7299090000     0.4249710000     1.1130200000
   14      C       1.9321790000     1.1245180000     0.8205780000
   15      H       0.3944780000     0.2297650000     2.1428810000
   16      C       2.1467560000     1.2491610000    -0.5635880000
   17      S       0.8387240000     0.4885000000    -1.4647480000
   18      C       2.8523640000     1.6599240000     1.8823800000
   19      H       2.4651450000     1.4347100000     2.8949740000
   20      H       2.9706210000     2.7611830000     1.8081370000
   21      H       3.8681600000     1.2184160000     1.8082300000
   22      H       2.9747810000     1.7310320000    -1.0971140000
 ----------------------------------------------------------------

   11   -1179.5818723013      6.12e-07  Convergence criterion met
 Total energy in the final basis set =    -1179.5818723013
        RIMP2         total energy =     -1181.5862728067 a.u.

                    Orbital Energies (a.u.)
 --------------------------------------------------------------

 Alpha MOs
 -- Occupied --
-91.9789 -91.9741 -11.2881 -11.2824 -11.2630 -11.2572 -11.2570 -11.2534
-11.2380 -11.2338 -11.2312 -11.2204  -8.9813  -8.9745  -6.6615  -6.6610
 -6.6605  -6.6556  -6.6550  -6.6543  -1.1931  -1.1442  -1.0477  -1.0254
 -0.9965  -0.9506  -0.9093  -0.8972  -0.7916  -0.7647  -0.7272  -0.6950
 -0.6541  -0.6218  -0.5909  -0.5847  -0.5765  -0.5690  -0.5490  -0.5378
 -0.5240  -0.5220  -0.5110  -0.4956  -0.4670  -0.4492  -0.4420  -0.3652
 -0.3379  -0.3272  -0.2642

          Ground-State Mulliken Net Atomic Charges

     Atom                 Charge (a.u.)
  ----------------------------------------
      1 C                    -0.238094
      2 C                    -0.252009
      3 C                    -0.009678
      4 H                     0.183753
      5 C                     0.009938
      6 S                    -0.020507
      7 C                    -0.258519
      8 H                     0.096970
      9 H                     0.108245
     10 H                     0.102977
     11 H                     0.199728
     12 C                    -0.117800
     13 C                    -0.095797
     14 C                    -0.026379
     15 H                     0.189546
     16 C                    -0.184954
     17 S                     0.058435
     18 C                    -0.265141
     19 H                     0.103664
     20 H                     0.107002
     21 H                     0.105378
     22 H                     0.203241
  ----------------------------------------
  Sum of atomic charges =     0.000000

                    Cartesian Multipole Moments
 -----------------------------------------------------------------
    Charge (ESU x 10^10)
                -0.0000
    Dipole Moment (Debye)
         X       3.7027      Y       1.1742      Z      -0.0169
       Tot       3.8844
    Quadrupole Moments (Debye-Ang)
        XX     -81.4230     XY       4.3199     YY     -82.4712
        XZ      -2.2863     YZ       2.5668     ZZ     -81.0369

 Total job time:  66.16s(wall), 2764.74s(cpu)
        *  Thank you very much for using Q-Chem.  Have a nice day.  *
