 Q-Chem 5.4, Q-Chem, Inc., Pleasanton, CA (2021)
 Q-Chem 5.4.0 for Intel X86 EM64T Linux

User input:
--------------------------------------------------------------
$molecule
0 1
C	0.466510	-3.887800	-0.554267
C	-0.424173	-3.701456	0.507121
C	-0.697244	-2.345170	0.831575
H	-0.877789	-4.545233	1.048337
C	0.000000	-1.450135	0.000000
S	0.982150	-2.321334	-1.169911
C	-1.627024	-1.934439	1.939374
H	-2.054010	-2.819799	2.448894
H	-2.475299	-1.326210	1.561545
H	-1.108051	-1.325374	2.708773
H	0.841863	-4.815326	-1.000944
C	0.000000	0.000000	0.000000
C	0.729909	0.424971	1.113020
C	1.932179	1.124518	0.820578
H	0.394478	0.229765	2.142881
C	2.146756	1.249161	-0.563588
S	0.838724	0.488500	-1.464748
C	2.852364	1.659924	1.882380
H	2.465145	1.434710	2.894974
H	2.970621	2.761183	1.808137
H	3.868160	1.218416	1.808230
H	2.974781	1.731032	-1.097114
$end

$rem
JOBTYPE		SP
EXCHANGE	HF
CORRELATION	pRIMP2
BASIS		cc-pvtz
METHOD		rimp2
AUX_BASIS	rimp2-cc-pvtz
SOLVENT_METHOD	PCM
PURECART	11111
SYMMETRY	false
MEM_TOTAL	110000
SCF_CONVERGENCE = 6
THRESH=10
GUI = 2
$end

$solvent
dielectric 4.90
$end
--------------------------------------------------------------

             Standard Nuclear Orientation (Angstroms)
    I     Atom           X                Y                Z
 ----------------------------------------------------------------
    1      C       0.4665100000    -3.8878000000    -0.5542670000
    2      C      -0.4241730000    -3.7014560000     0.5071210000
    3      C      -0.6972440000    -2.3451700000     0.8315750000
    4      H      -0.8777890000    -4.5452330000     1.0483370000
    5      C       0.0000000000    -1.4501350000     0.0000000000
    6      S       0.9821500000    -2.3213340000    -1.1699110000
    7      C      -1.6270240000    -1.9344390000     1.9393740000
    8      H      -2.0540100000    -2.8197990000     2.4488940000
    9      H      -2.4752990000    -1.3262100000     1.5615450000
   10      H      -1.1080510000    -1.3253740000     2.7087730000
   11      H       0.8418630000    -4.8153260000    -1.0009440000
   12      C       0.0000000000     0.0000000000     0.0000000000
   13      C       0.7299090000     0.4249710000     1.1130200000
   14      C       1.9321790000     1.1245180000     0.8205780000
   15      H       0.3944780000     0.2297650000     2.1428810000
   16      C       2.1467560000     1.2491610000    -0.5635880000
   17      S       0.8387240000     0.4885000000    -1.4647480000
   18      C       2.8523640000     1.6599240000     1.8823800000
   19      H       2.4651450000     1.4347100000     2.8949740000
   20      H       2.9706210000     2.7611830000     1.8081370000
   21      H       3.8681600000     1.2184160000     1.8082300000
   22      H       2.9747810000     1.7310320000    -1.0971140000
 ----------------------------------------------------------------

   11   -1179.6129084375      4.72e-07  Convergence criterion met
 Total energy in the final basis set =    -1179.6129084375
        RIMP2         total energy =     -1181.6080897112 a.u.

                    Orbital Energies (a.u.)
 --------------------------------------------------------------

 Alpha MOs
 -- Occupied --
-91.9860 -91.9769 -11.2940 -11.2785 -11.2706 -11.2580 -11.2573 -11.2505
-11.2356 -11.2328 -11.2286 -11.2244  -8.9869  -8.9767  -6.6676  -6.6668
 -6.6665  -6.6575  -6.6568  -6.6562  -1.1946  -1.1439  -1.0484  -1.0194
 -0.9986  -0.9547  -0.9089  -0.8917  -0.8008  -0.7534  -0.7342  -0.6953
 -0.6528  -0.6216  -0.5946  -0.5806  -0.5685  -0.5627  -0.5484  -0.5399
 -0.5345  -0.5160  -0.5060  -0.4890  -0.4830  -0.4549  -0.4495  -0.3668
 -0.3386  -0.3319  -0.2669

          Ground-State Mulliken Net Atomic Charges

     Atom                 Charge (a.u.)
  ----------------------------------------
      1 C                    -0.271977
      2 C                    -0.235815
      3 C                    -0.012274
      4 H                     0.180008
      5 C                     0.015331
      6 S                     0.014435
      7 C                    -0.295096
      8 H                     0.107073
      9 H                     0.106452
     10 H                     0.096778
     11 H                     0.197544
     12 C                    -0.115407
     13 C                    -0.083410
     14 C                    -0.025262
     15 H                     0.201701
     16 C                    -0.163925
     17 S                     0.025978
     18 C                    -0.266641
     19 H                     0.103031
     20 H                     0.108485
     21 H                     0.107381
     22 H                     0.205608
  ----------------------------------------
  Sum of atomic charges =     0.000000

                    Cartesian Multipole Moments
 -----------------------------------------------------------------
    Charge (ESU x 10^10)
                -0.0000
    Dipole Moment (Debye)
         X       2.2443      Y       1.6911      Z       2.6402
       Tot       3.8558
    Quadrupole Moments (Debye-Ang)
        XX     -80.2351     XY       7.4489     YY     -82.6174
        XZ      -2.1267     YZ      -1.2599     ZZ     -82.1655

 Total job time:  61.18s(wall), 1942.64s(cpu)
        *  Thank you very much for using Q-Chem.  Have a nice day.  *
