 Q-Chem 5.4, Q-Chem, Inc., Pleasanton, CA (2021)
 Q-Chem 5.4.0 for Intel X86 EM64T Linux

User input:
--------------------------------------------------------------
$molecule
0 1
C	-0.246754	-3.887800	-0.681143
C	0.227093	-3.701456	0.620906
C	0.371543	-2.345170	1.019618
H	0.468992	-4.545233	1.284357
C	0.000000	-1.450135	0.000000
S	-0.522097	-2.321334	-1.435522
C	0.866035	-1.934439	2.378731
H	1.093799	-2.819799	3.003272
H	0.114688	-1.326210	2.924444
H	1.791841	-1.325374	2.313987
H	-0.445911	-4.815326	-1.229547
C	0.000000	0.000000	0.000000
C	0.143630	0.832309	1.113020
C	0.380550	2.202961	0.820578
H	0.077556	0.449877	2.142881
C	0.422995	2.447456	-0.563588
S	0.164909	0.956502	-1.464748
C	0.561888	3.252016	1.882380
H	0.485513	2.810624	2.894974
H	-0.205711	4.050482	1.808137
H	1.553045	3.746365	1.808230
H	0.586105	3.391501	-1.097114
$end

$rem
JOBTYPE		SP
EXCHANGE	HF
CORRELATION	pRIMP2
BASIS		cc-pvtz
METHOD		rimp2
AUX_BASIS	rimp2-cc-pvtz
SOLVENT_METHOD	PCM
PURECART	11111
SYMMETRY	false
MEM_TOTAL	110000
SCF_CONVERGENCE = 6
THRESH=10
GUI = 2
$end

$solvent
dielectric 4.90
$end
--------------------------------------------------------------

             Standard Nuclear Orientation (Angstroms)
    I     Atom           X                Y                Z
 ----------------------------------------------------------------
    1      C      -0.2467540000    -3.8878000000    -0.6811430000
    2      C       0.2270930000    -3.7014560000     0.6209060000
    3      C       0.3715430000    -2.3451700000     1.0196180000
    4      H       0.4689920000    -4.5452330000     1.2843570000
    5      C       0.0000000000    -1.4501350000     0.0000000000
    6      S      -0.5220970000    -2.3213340000    -1.4355220000
    7      C       0.8660350000    -1.9344390000     2.3787310000
    8      H       1.0937990000    -2.8197990000     3.0032720000
    9      H       0.1146880000    -1.3262100000     2.9244440000
   10      H       1.7918410000    -1.3253740000     2.3139870000
   11      H      -0.4459110000    -4.8153260000    -1.2295470000
   12      C       0.0000000000     0.0000000000     0.0000000000
   13      C       0.1436300000     0.8323090000     1.1130200000
   14      C       0.3805500000     2.2029610000     0.8205780000
   15      H       0.0775560000     0.4498770000     2.1428810000
   16      C       0.4229950000     2.4474560000    -0.5635880000
   17      S       0.1649090000     0.9565020000    -1.4647480000
   18      C       0.5618880000     3.2520160000     1.8823800000
   19      H       0.4855130000     2.8106240000     2.8949740000
   20      H      -0.2057110000     4.0504820000     1.8081370000
   21      H       1.5530450000     3.7463650000     1.8082300000
   22      H       0.5861050000     3.3915010000    -1.0971140000
 ----------------------------------------------------------------

   10   -1179.6832938452      5.14e-07  Convergence criterion met
 Total energy in the final basis set =    -1179.6832938452
        RIMP2         total energy =     -1181.6636305057 a.u.

                    Orbital Energies (a.u.)
 --------------------------------------------------------------

 Alpha MOs
 -- Occupied --
-91.9859 -91.9857 -11.2831 -11.2790 -11.2732 -11.2646 -11.2539 -11.2522
-11.2443 -11.2392 -11.2312 -11.2295  -8.9856  -8.9855  -6.6665  -6.6665
 -6.6660  -6.6659  -6.6653  -6.6653  -1.1808  -1.1504  -1.0410  -1.0273
 -0.9958  -0.9557  -0.9148  -0.8948  -0.8019  -0.7561  -0.7276  -0.7010
 -0.6617  -0.6150  -0.5912  -0.5820  -0.5703  -0.5628  -0.5512  -0.5397
 -0.5297  -0.5228  -0.5039  -0.4925  -0.4877  -0.4749  -0.4534  -0.3665
 -0.3463  -0.3387  -0.2716

          Ground-State Mulliken Net Atomic Charges

     Atom                 Charge (a.u.)
  ----------------------------------------
      1 C                    -0.212566
      2 C                    -0.251988
      3 C                     0.069695
      4 H                     0.185286
      5 C                    -0.045407
      6 S                     0.012857
      7 C                    -0.309265
      8 H                     0.117383
      9 H                     0.104943
     10 H                     0.118332
     11 H                     0.206562
     12 C                     0.029777
     13 C                    -0.266910
     14 C                     0.037232
     15 H                     0.196076
     16 C                    -0.255454
     17 S                     0.015852
     18 C                    -0.270962
     19 H                     0.101662
     20 H                     0.108690
     21 H                     0.108971
     22 H                     0.199232
  ----------------------------------------
  Sum of atomic charges =     0.000000

                    Cartesian Multipole Moments
 -----------------------------------------------------------------
    Charge (ESU x 10^10)
                -0.0000
    Dipole Moment (Debye)
         X       0.8459      Y       0.1329      Z       2.9088
       Tot       3.0322
    Quadrupole Moments (Debye-Ang)
        XX     -91.6652     XY       1.0759     YY     -68.6445
        XZ       2.3825     YZ      -1.0157     ZZ     -80.8522

 Total job time:  50.76s(wall), 1812.44s(cpu)
        *  Thank you very much for using Q-Chem.  Have a nice day.  *
