 Q-Chem 5.4, Q-Chem, Inc., Pleasanton, CA (2021)
 Q-Chem 5.4.0 for Intel X86 EM64T Linux

User input:
--------------------------------------------------------------
$molecule
0 1
C	0.627947	-3.887800	-0.361285
C	-0.572038	-3.701456	0.331462
C	-0.939610	-2.345170	0.542953
H	-1.183405	-4.545233	0.684893
C	0.000000	-1.450135	0.000000
S	1.323052	-2.321334	-0.763441
C	-2.192207	-1.934439	1.265941
H	-2.767709	-2.819799	1.598695
H	-2.860100	-1.326210	0.620770
H	-1.967682	-1.325374	2.166438
H	1.133436	-4.815326	-0.652645
C	0.000000	0.000000	0.000000
C	0.285976	0.794723	1.113020
C	0.757308	2.103412	0.820578
H	0.154498	0.429575	2.142881
C	0.841565	2.336821	-0.563588
S	0.328498	0.913334	-1.464748
C	1.118059	3.105040	1.882380
H	0.966197	2.683616	2.894974
H	0.500773	4.024668	1.808137
H	2.180000	3.419766	1.808230
H	1.166129	3.238200	-1.097114
$end

$rem
JOBTYPE		SP
EXCHANGE	HF
CORRELATION	pRIMP2
BASIS		cc-pvtz
METHOD		rimp2
AUX_BASIS	rimp2-cc-pvtz
SOLVENT_METHOD	PCM
PURECART	11111
SYMMETRY	false
MEM_TOTAL	110000
SCF_CONVERGENCE = 6
THRESH=10
GUI = 2
$end

$solvent
dielectric 4.90
$end
--------------------------------------------------------------

             Standard Nuclear Orientation (Angstroms)
    I     Atom           X                Y                Z
 ----------------------------------------------------------------
    1      C       0.6279470000    -3.8878000000    -0.3612850000
    2      C      -0.5720380000    -3.7014560000     0.3314620000
    3      C      -0.9396100000    -2.3451700000     0.5429530000
    4      H      -1.1834050000    -4.5452330000     0.6848930000
    5      C       0.0000000000    -1.4501350000     0.0000000000
    6      S       1.3230520000    -2.3213340000    -0.7634410000
    7      C      -2.1922070000    -1.9344390000     1.2659410000
    8      H      -2.7677090000    -2.8197990000     1.5986950000
    9      H      -2.8601000000    -1.3262100000     0.6207700000
   10      H      -1.9676820000    -1.3253740000     2.1664380000
   11      H       1.1334360000    -4.8153260000    -0.6526450000
   12      C       0.0000000000     0.0000000000     0.0000000000
   13      C       0.2859760000     0.7947230000     1.1130200000
   14      C       0.7573080000     2.1034120000     0.8205780000
   15      H       0.1544980000     0.4295750000     2.1428810000
   16      C       0.8415650000     2.3368210000    -0.5635880000
   17      S       0.3284980000     0.9133340000    -1.4647480000
   18      C       1.1180590000     3.1050400000     1.8823800000
   19      H       0.9661970000     2.6836160000     2.8949740000
   20      H       0.5007730000     4.0246680000     1.8081370000
   21      H       2.1800000000     3.4197660000     1.8082300000
   22      H       1.1661290000     3.2382000000    -1.0971140000
 ----------------------------------------------------------------

   10   -1179.6791279802      5.04e-07  Convergence criterion met
 Total energy in the final basis set =    -1179.6791279802
        RIMP2         total energy =     -1181.6586982739 a.u.

                    Orbital Energies (a.u.)
 --------------------------------------------------------------

 Alpha MOs
 -- Occupied --
-91.9861 -91.9849 -11.2782 -11.2749 -11.2706 -11.2674 -11.2519 -11.2503
-11.2439 -11.2416 -11.2295 -11.2288  -8.9857  -8.9845  -6.6666  -6.6660
 -6.6654  -6.6653  -6.6648  -6.6642  -1.1793  -1.1495  -1.0402  -1.0229
 -0.9962  -0.9550  -0.9121  -0.8930  -0.8005  -0.7515  -0.7317  -0.6954
 -0.6611  -0.6163  -0.5844  -0.5796  -0.5697  -0.5670  -0.5514  -0.5331
 -0.5299  -0.5195  -0.5075  -0.4915  -0.4849  -0.4692  -0.4598  -0.3524
 -0.3394  -0.3325  -0.2875

          Ground-State Mulliken Net Atomic Charges

     Atom                 Charge (a.u.)
  ----------------------------------------
      1 C                    -0.212460
      2 C                    -0.251113
      3 C                     0.046726
      4 H                     0.184281
      5 C                    -0.047011
      6 S                     0.025014
      7 C                    -0.285340
      8 H                     0.107636
      9 H                     0.110922
     10 H                     0.107460
     11 H                     0.204007
     12 C                    -0.016553
     13 C                    -0.212076
     14 C                     0.014428
     15 H                     0.189315
     16 C                    -0.228526
     17 S                     0.017002
     18 C                    -0.271161
     19 H                     0.102541
     20 H                     0.108023
     21 H                     0.108305
     22 H                     0.198580
  ----------------------------------------
  Sum of atomic charges =     0.000000

                    Cartesian Multipole Moments
 -----------------------------------------------------------------
    Charge (ESU x 10^10)
                -0.0000
    Dipole Moment (Debye)
         X      -0.5821      Y       0.4302      Z       2.2468
       Tot       2.3605
    Quadrupole Moments (Debye-Ang)
        XX     -86.5945     XY       5.4428     YY     -70.4142
        XZ      -2.4083     YZ      -0.1013     ZZ     -84.9903

 Total job time:  56.89s(wall), 1994.80s(cpu)
        *  Thank you very much for using Q-Chem.  Have a nice day.  *
