 Q-Chem 5.4, Q-Chem, Inc., Pleasanton, CA (2021)
 Q-Chem 5.4.0 for Intel X86 EM64T Linux

User input:
--------------------------------------------------------------
$molecule
0 1
C	-0.555670	-3.887800	0.464838
C	0.505790	-3.701456	-0.425760
C	0.831053	-2.345170	-0.697866
H	1.046496	-4.545233	-0.879984
C	-0.000000	-1.450135	-0.000000
S	-1.170382	-2.321334	0.981588
C	1.939074	-1.934439	-1.627381
H	2.448051	-2.819799	-2.055015
H	2.708853	-1.326210	-1.107991
H	1.561590	-1.325374	-2.475210
H	-1.002886	-4.815326	0.839549
C	0.000000	0.000000	0.000000
C	0.070542	0.841660	1.113020
C	0.187101	2.227746	0.820578
H	0.038051	0.454925	2.142881
C	0.208076	2.475009	-0.563588
S	0.080917	0.967235	-1.464748
C	0.276318	3.288613	1.882380
H	0.238704	2.842244	2.894974
H	-0.557951	4.017140	1.808137
H	1.220618	3.867466	1.808230
H	0.288286	3.429678	-1.097114
$end

$rem
JOBTYPE		SP
EXCHANGE	HF
CORRELATION	pRIMP2
BASIS		cc-pvtz
METHOD		rimp2
AUX_BASIS	rimp2-cc-pvtz
SOLVENT_METHOD	PCM
PURECART	11111
SYMMETRY	false
MEM_TOTAL	110000
SCF_CONVERGENCE = 6
THRESH=10
GUI = 2
$end

$solvent
dielectric 4.90
$end
--------------------------------------------------------------

             Standard Nuclear Orientation (Angstroms)
    I     Atom           X                Y                Z
 ----------------------------------------------------------------
    1      C      -0.5556700000    -3.8878000000     0.4648380000
    2      C       0.5057900000    -3.7014560000    -0.4257600000
    3      C       0.8310530000    -2.3451700000    -0.6978660000
    4      H       1.0464960000    -4.5452330000    -0.8799840000
    5      C       0.0000000000    -1.4501350000     0.0000000000
    6      S      -1.1703820000    -2.3213340000     0.9815880000
    7      C       1.9390740000    -1.9344390000    -1.6273810000
    8      H       2.4480510000    -2.8197990000    -2.0550150000
    9      H       2.7088530000    -1.3262100000    -1.1079910000
   10      H       1.5615900000    -1.3253740000    -2.4752100000
   11      H      -1.0028860000    -4.8153260000     0.8395490000
   12      C       0.0000000000     0.0000000000     0.0000000000
   13      C       0.0705420000     0.8416600000     1.1130200000
   14      C       0.1871010000     2.2277460000     0.8205780000
   15      H       0.0380510000     0.4549250000     2.1428810000
   16      C       0.2080760000     2.4750090000    -0.5635880000
   17      S       0.0809170000     0.9672350000    -1.4647480000
   18      C       0.2763180000     3.2886130000     1.8823800000
   19      H       0.2387040000     2.8422440000     2.8949740000
   20      H      -0.5579510000     4.0171400000     1.8081370000
   21      H       1.2206180000     3.8674660000     1.8082300000
   22      H       0.2882860000     3.4296780000    -1.0971140000
 ----------------------------------------------------------------

   10   -1179.6860355220      5.11e-07  Convergence criterion met
 Total energy in the final basis set =    -1179.6860355220
        RIMP2         total energy =     -1181.6646984822 a.u.

                    Orbital Energies (a.u.)
 --------------------------------------------------------------

 Alpha MOs
 -- Occupied --
-91.9861 -91.9855 -11.2815 -11.2760 -11.2723 -11.2646 -11.2527 -11.2514
-11.2429 -11.2412 -11.2291 -11.2285  -8.9856  -8.9850  -6.6665  -6.6660
 -6.6659  -6.6654  -6.6653  -6.6648  -1.1790  -1.1498  -1.0401  -1.0230
 -0.9980  -0.9532  -0.9138  -0.8933  -0.7995  -0.7598  -0.7243  -0.6947
 -0.6622  -0.6164  -0.5828  -0.5778  -0.5748  -0.5697  -0.5517  -0.5325
 -0.5266  -0.5192  -0.5088  -0.4951  -0.4882  -0.4671  -0.4581  -0.3521
 -0.3429  -0.3371  -0.2829

          Ground-State Mulliken Net Atomic Charges

     Atom                 Charge (a.u.)
  ----------------------------------------
      1 C                    -0.215778
      2 C                    -0.248924
      3 C                     0.032532
      4 H                     0.185521
      5 C                    -0.028334
      6 S                     0.023773
      7 C                    -0.294730
      8 H                     0.110185
      9 H                     0.115370
     10 H                     0.112331
     11 H                     0.204572
     12 C                     0.007395
     13 C                    -0.239344
     14 C                     0.018807
     15 H                     0.187013
     16 C                    -0.239310
     17 S                     0.021901
     18 C                    -0.271064
     19 H                     0.103028
     20 H                     0.108318
     21 H                     0.108057
     22 H                     0.198680
  ----------------------------------------
  Sum of atomic charges =     0.000000

                    Cartesian Multipole Moments
 -----------------------------------------------------------------
    Charge (ESU x 10^10)
                -0.0000
    Dipole Moment (Debye)
         X       1.3249      Y       0.2424      Z       0.4542
       Tot       1.4214
    Quadrupole Moments (Debye-Ang)
        XX     -88.8228     XY      -0.7698     YY     -68.9278
        XZ      -3.2289     YZ       2.5654     ZZ     -83.8979

 Total job time:  53.22s(wall), 1753.28s(cpu)
        *  Thank you very much for using Q-Chem.  Have a nice day.  *
