 Q-Chem 5.4, Q-Chem, Inc., Pleasanton, CA (2021)
 Q-Chem 5.4.0 for Intel X86 EM64T Linux

User input:
--------------------------------------------------------------
$molecule
0 1
C	-0.724460	-3.887800	-0.001092
C	0.661131	-3.701456	-0.001036
C	1.085203	-2.345170	-0.000406
H	1.367305	-4.545233	-0.001433
C	0.000000	-1.450135	0.000000
S	-1.527517	-2.321334	-0.000367
C	2.531478	-1.934439	-0.000233
H	3.196254	-2.819799	-0.000656
H	2.787305	-1.326210	0.892447
H	2.787282	-1.325374	-0.892350
H	-1.307907	-4.815326	-0.001511
C	0.000000	0.000000	0.000000
C	0.419634	0.732990	1.113020
C	1.111057	1.939951	0.820578
H	0.226746	0.396221	2.142881
C	1.234565	2.155183	-0.563588
S	0.482106	0.842416	-1.464748
C	1.640257	2.863718	1.882380
H	1.417524	2.475067	2.894974
H	1.192042	3.876565	1.808137
H	2.740717	2.989259	1.808230
H	1.710720	2.986508	-1.097114
$end

$rem
JOBTYPE		SP
EXCHANGE	HF
CORRELATION	pRIMP2
BASIS		cc-pvtz
METHOD		rimp2
AUX_BASIS	rimp2-cc-pvtz
SOLVENT_METHOD	PCM
PURECART	11111
SYMMETRY	false
MEM_TOTAL	110000
SCF_CONVERGENCE = 6
THRESH=10
GUI = 2
$end

$solvent
dielectric 4.90
$end
--------------------------------------------------------------

             Standard Nuclear Orientation (Angstroms)
    I     Atom           X                Y                Z
 ----------------------------------------------------------------
    1      C      -0.7244600000    -3.8878000000    -0.0010920000
    2      C       0.6611310000    -3.7014560000    -0.0010360000
    3      C       1.0852030000    -2.3451700000    -0.0004060000
    4      H       1.3673050000    -4.5452330000    -0.0014330000
    5      C       0.0000000000    -1.4501350000     0.0000000000
    6      S      -1.5275170000    -2.3213340000    -0.0003670000
    7      C       2.5314780000    -1.9344390000    -0.0002330000
    8      H       3.1962540000    -2.8197990000    -0.0006560000
    9      H       2.7873050000    -1.3262100000     0.8924470000
   10      H       2.7872820000    -1.3253740000    -0.8923500000
   11      H      -1.3079070000    -4.8153260000    -0.0015110000
   12      C       0.0000000000     0.0000000000     0.0000000000
   13      C       0.4196340000     0.7329900000     1.1130200000
   14      C       1.1110570000     1.9399510000     0.8205780000
   15      H       0.2267460000     0.3962210000     2.1428810000
   16      C       1.2345650000     2.1551830000    -0.5635880000
   17      S       0.4821060000     0.8424160000    -1.4647480000
   18      C       1.6402570000     2.8637180000     1.8823800000
   19      H       1.4175240000     2.4750670000     2.8949740000
   20      H       1.1920420000     3.8765650000     1.8081370000
   21      H       2.7407170000     2.9892590000     1.8082300000
   22      H       1.7107200000     2.9865080000    -1.0971140000
 ----------------------------------------------------------------

   10   -1179.6695096752      6.06e-07  Convergence criterion met
 Total energy in the final basis set =    -1179.6695096752
        RIMP2         total energy =     -1181.6527711562 a.u.

                    Orbital Energies (a.u.)
 --------------------------------------------------------------

 Alpha MOs
 -- Occupied --
-91.9850 -91.9816 -11.2734 -11.2717 -11.2714 -11.2696 -11.2518 -11.2507
-11.2475 -11.2408 -11.2299 -11.2275  -8.9846  -8.9813  -6.6654  -6.6648
 -6.6643  -6.6622  -6.6616  -6.6611  -1.1795  -1.1487  -1.0404  -1.0204
 -0.9972  -0.9538  -0.9126  -0.8918  -0.7974  -0.7525  -0.7324  -0.6952
 -0.6598  -0.6172  -0.5814  -0.5802  -0.5722  -0.5689  -0.5504  -0.5310
 -0.5279  -0.5205  -0.5108  -0.4910  -0.4794  -0.4641  -0.4594  -0.3450
 -0.3405  -0.3139  -0.3075

          Ground-State Mulliken Net Atomic Charges

     Atom                 Charge (a.u.)
  ----------------------------------------
      1 C                    -0.214512
      2 C                    -0.252454
      3 C                     0.071066
      4 H                     0.184529
      5 C                    -0.035315
      6 S                     0.021216
      7 C                    -0.286875
      8 H                     0.111117
      9 H                     0.109838
     10 H                     0.112270
     11 H                     0.202526
     12 C                    -0.058042
     13 C                    -0.235267
     14 C                     0.034870
     15 H                     0.186122
     16 C                    -0.229166
     17 S                     0.028953
     18 C                    -0.268945
     19 H                     0.103193
     20 H                     0.108391
     21 H                     0.107155
     22 H                     0.199330
  ----------------------------------------
  Sum of atomic charges =     0.000000

                    Cartesian Multipole Moments
 -----------------------------------------------------------------
    Charge (ESU x 10^10)
                -0.0000
    Dipole Moment (Debye)
         X       2.6608      Y       0.5378      Z       1.5383
       Tot       3.1201
    Quadrupole Moments (Debye-Ang)
        XX     -83.6194     XY       2.5401     YY     -72.1955
        XZ       0.5058     YZ       0.9694     ZZ     -86.5388

 Total job time:  49.47s(wall), 1739.93s(cpu)
        *  Thank you very much for using Q-Chem.  Have a nice day.  *
