 Q-Chem 5.4, Q-Chem, Inc., Pleasanton, CA (2021)
 Q-Chem 5.4.0 for Intel X86 EM64T Linux

User input:
--------------------------------------------------------------
$molecule
0 1
C	0.363176	-3.887800	-0.626855
C	-0.329669	-3.701456	0.573074
C	-0.542250	-2.345170	0.940016
H	-0.682412	-4.545233	1.184837
C	0.000000	-1.450135	0.000000
S	0.764076	-2.321334	-1.322686
C	-1.265537	-1.934439	2.192440
H	-1.597559	-2.819799	2.768365
H	-2.166534	-1.326210	1.967653
H	-0.620843	-1.325374	2.860032
H	0.655262	-4.815326	-1.131925
C	0.000000	0.000000	0.000000
C	0.285976	0.794723	1.113020
C	0.757308	2.103412	0.820578
H	0.154498	0.429575	2.142881
C	0.841565	2.336821	-0.563588
S	0.328498	0.913334	-1.464748
C	1.118059	3.105040	1.882380
H	0.966197	2.683616	2.894974
H	0.500773	4.024668	1.808137
H	2.180000	3.419766	1.808230
H	1.166129	3.238200	-1.097114
$end

$rem
JOBTYPE		SP
EXCHANGE	HF
CORRELATION	pRIMP2
BASIS		cc-pvtz
METHOD		rimp2
AUX_BASIS	rimp2-cc-pvtz
SOLVENT_METHOD	PCM
PURECART	11111
SYMMETRY	false
MEM_TOTAL	110000
SCF_CONVERGENCE = 6
THRESH=10
GUI = 2
$end

$solvent
dielectric 4.90
$end
--------------------------------------------------------------

             Standard Nuclear Orientation (Angstroms)
    I     Atom           X                Y                Z
 ----------------------------------------------------------------
    1      C       0.3631760000    -3.8878000000    -0.6268550000
    2      C      -0.3296690000    -3.7014560000     0.5730740000
    3      C      -0.5422500000    -2.3451700000     0.9400160000
    4      H      -0.6824120000    -4.5452330000     1.1848370000
    5      C       0.0000000000    -1.4501350000     0.0000000000
    6      S       0.7640760000    -2.3213340000    -1.3226860000
    7      C      -1.2655370000    -1.9344390000     2.1924400000
    8      H      -1.5975590000    -2.8197990000     2.7683650000
    9      H      -2.1665340000    -1.3262100000     1.9676530000
   10      H      -0.6208430000    -1.3253740000     2.8600320000
   11      H       0.6552620000    -4.8153260000    -1.1319250000
   12      C       0.0000000000     0.0000000000     0.0000000000
   13      C       0.2859760000     0.7947230000     1.1130200000
   14      C       0.7573080000     2.1034120000     0.8205780000
   15      H       0.1544980000     0.4295750000     2.1428810000
   16      C       0.8415650000     2.3368210000    -0.5635880000
   17      S       0.3284980000     0.9133340000    -1.4647480000
   18      C       1.1180590000     3.1050400000     1.8823800000
   19      H       0.9661970000     2.6836160000     2.8949740000
   20      H       0.5007730000     4.0246680000     1.8081370000
   21      H       2.1800000000     3.4197660000     1.8082300000
   22      H       1.1661290000     3.2382000000    -1.0971140000
 ----------------------------------------------------------------

   10   -1179.6785355717      4.85e-07  Convergence criterion met
 Total energy in the final basis set =    -1179.6785355717
        RIMP2         total energy =     -1181.6597174087 a.u.

                    Orbital Energies (a.u.)
 --------------------------------------------------------------

 Alpha MOs
 -- Occupied --
-91.9867 -91.9854 -11.2815 -11.2785 -11.2697 -11.2674 -11.2531 -11.2498
-11.2433 -11.2429 -11.2301 -11.2299  -8.9864  -8.9851  -6.6673  -6.6668
 -6.6661  -6.6660  -6.6655  -6.6648  -1.1812  -1.1500  -1.0416  -1.0252
 -0.9960  -0.9562  -0.9130  -0.8945  -0.8019  -0.7543  -0.7293  -0.6990
 -0.6610  -0.6154  -0.5897  -0.5814  -0.5703  -0.5631  -0.5515  -0.5384
 -0.5305  -0.5212  -0.5057  -0.4913  -0.4859  -0.4753  -0.4540  -0.3647
 -0.3441  -0.3383  -0.2726

          Ground-State Mulliken Net Atomic Charges

     Atom                 Charge (a.u.)
  ----------------------------------------
      1 C                    -0.221007
      2 C                    -0.248433
      3 C                     0.045036
      4 H                     0.184648
      5 C                    -0.034007
      6 S                     0.015504
      7 C                    -0.304644
      8 H                     0.113126
      9 H                     0.115519
     10 H                     0.104633
     11 H                     0.205011
     12 C                     0.005085
     13 C                    -0.210484
     14 C                     0.012118
     15 H                     0.193307
     16 C                    -0.230062
     17 S                     0.006493
     18 C                    -0.271377
     19 H                     0.101765
     20 H                     0.108714
     21 H                     0.108738
     22 H                     0.200316
  ----------------------------------------
  Sum of atomic charges =     0.000000

                    Cartesian Multipole Moments
 -----------------------------------------------------------------
    Charge (ESU x 10^10)
                -0.0000
    Dipole Moment (Debye)
         X      -0.0373      Y       0.4499      Z       2.7598
       Tot       2.7965
    Quadrupole Moments (Debye-Ang)
        XX     -89.8191     XY       4.7076     YY     -70.3098
        XZ      -2.4343     YZ      -0.9238     ZZ     -81.7291

 Total job time:  49.75s(wall), 1741.28s(cpu)
        *  Thank you very much for using Q-Chem.  Have a nice day.  *
