 Q-Chem 5.4, Q-Chem, Inc., Pleasanton, CA (2021)
 Q-Chem 5.4.0 for Intel X86 EM64T Linux

User input:
--------------------------------------------------------------
$molecule
0 1
C	0.554267	-3.887800	0.466510
C	-0.507121	-3.701456	-0.424173
C	-0.831575	-2.345170	-0.697244
H	-1.048337	-4.545233	-0.877789
C	-0.000000	-1.450135	-0.000000
S	1.169911	-2.321334	0.982150
C	-1.939374	-1.934439	-1.627024
H	-2.448894	-2.819799	-2.054010
H	-1.561545	-1.326210	-2.475299
H	-2.708773	-1.325374	-1.108051
H	1.000944	-4.815326	0.841863
C	0.000000	0.000000	0.000000
C	0.540541	0.648986	1.113020
C	1.431046	1.717546	0.820578
H	0.292104	0.350827	2.142881
C	1.590053	1.908061	-0.563588
S	0.621066	0.745901	-1.464748
C	2.112618	2.535384	1.882380
H	1.825779	2.191315	2.894974
H	1.847090	3.610676	1.808137
H	3.218159	2.467925	1.808230
H	2.203332	2.644073	-1.097114
$end

$rem
JOBTYPE		SP
EXCHANGE	HF
CORRELATION	pRIMP2
BASIS		cc-pvtz
METHOD		rimp2
AUX_BASIS	rimp2-cc-pvtz
SOLVENT_METHOD	PCM
PURECART	11111
SYMMETRY	false
MEM_TOTAL	110000
SCF_CONVERGENCE = 6
THRESH=10
GUI = 2
$end

$solvent
dielectric 4.90
$end
--------------------------------------------------------------

             Standard Nuclear Orientation (Angstroms)
    I     Atom           X                Y                Z
 ----------------------------------------------------------------
    1      C       0.5542670000    -3.8878000000     0.4665100000
    2      C      -0.5071210000    -3.7014560000    -0.4241730000
    3      C      -0.8315750000    -2.3451700000    -0.6972440000
    4      H      -1.0483370000    -4.5452330000    -0.8777890000
    5      C       0.0000000000    -1.4501350000     0.0000000000
    6      S       1.1699110000    -2.3213340000     0.9821500000
    7      C      -1.9393740000    -1.9344390000    -1.6270240000
    8      H      -2.4488940000    -2.8197990000    -2.0540100000
    9      H      -1.5615450000    -1.3262100000    -2.4752990000
   10      H      -2.7087730000    -1.3253740000    -1.1080510000
   11      H       1.0009440000    -4.8153260000     0.8418630000
   12      C       0.0000000000     0.0000000000     0.0000000000
   13      C       0.5405410000     0.6489860000     1.1130200000
   14      C       1.4310460000     1.7175460000     0.8205780000
   15      H       0.2921040000     0.3508270000     2.1428810000
   16      C       1.5900530000     1.9080610000    -0.5635880000
   17      S       0.6210660000     0.7459010000    -1.4647480000
   18      C       2.1126180000     2.5353840000     1.8823800000
   19      H       1.8257790000     2.1913150000     2.8949740000
   20      H       1.8470900000     3.6106760000     1.8081370000
   21      H       3.2181590000     2.4679250000     1.8082300000
   22      H       2.2033320000     2.6440730000    -1.0971140000
 ----------------------------------------------------------------

   10   -1179.6587454885      5.47e-07  Convergence criterion met
 Total energy in the final basis set =    -1179.6587454885
        RIMP2         total energy =     -1181.6442772095 a.u.

                    Orbital Energies (a.u.)
 --------------------------------------------------------------

 Alpha MOs
 -- Occupied --
-91.9846 -91.9831 -11.2761 -11.2732 -11.2693 -11.2672 -11.2533 -11.2496
-11.2447 -11.2399 -11.2301 -11.2278  -8.9846  -8.9827  -6.6654  -6.6648
 -6.6642  -6.6635  -6.6630  -6.6623  -1.1827  -1.1482  -1.0419  -1.0210
 -0.9994  -0.9504  -0.9141  -0.8919  -0.7974  -0.7596  -0.7272  -0.6907
 -0.6595  -0.6183  -0.5834  -0.5803  -0.5730  -0.5695  -0.5502  -0.5338
 -0.5270  -0.5171  -0.5081  -0.4940  -0.4767  -0.4674  -0.4585  -0.3468
 -0.3426  -0.3394  -0.2804

          Ground-State Mulliken Net Atomic Charges

     Atom                 Charge (a.u.)
  ----------------------------------------
      1 C                    -0.224985
      2 C                    -0.245725
      3 C                     0.028953
      4 H                     0.183399
      5 C                    -0.014682
      6 S                     0.020906
      7 C                    -0.292463
      8 H                     0.109039
      9 H                     0.108304
     10 H                     0.110665
     11 H                     0.202990
     12 C                    -0.019591
     13 C                    -0.288023
     14 C                     0.054326
     15 H                     0.194311
     16 C                    -0.221004
     17 S                     0.039982
     18 C                    -0.266291
     19 H                     0.103472
     20 H                     0.108275
     21 H                     0.108321
     22 H                     0.199821
  ----------------------------------------
  Sum of atomic charges =     0.000000

                    Cartesian Multipole Moments
 -----------------------------------------------------------------
    Charge (ESU x 10^10)
                -0.0000
    Dipole Moment (Debye)
         X       0.4726      Y       0.6427      Z       0.6028
       Tot       0.9999
    Quadrupole Moments (Debye-Ang)
        XX     -84.1004     XY       7.6308     YY     -74.2637
        XZ       3.7895     YZ       2.3023     ZZ     -83.7415

 Total job time:  53.12s(wall), 1873.42s(cpu)
        *  Thank you very much for using Q-Chem.  Have a nice day.  *
