 Q-Chem 5.4, Q-Chem, Inc., Pleasanton, CA (2021)
 Q-Chem 5.4.0 for Intel X86 EM64T Linux

User input:
--------------------------------------------------------------
$molecule
0 1
C	-0.126876	-3.887800	0.713264
C	0.113784	-3.701456	-0.651267
C	0.188043	-2.345170	-1.068787
H	0.236019	-4.545233	-1.346782
C	-0.000000	-1.450135	-0.000000
S	-0.265612	-2.321334	1.504247
C	0.439357	-1.934439	-2.493059
H	0.554378	-2.819799	-3.147809
H	1.362899	-1.326210	-2.589987
H	-0.394786	-1.325374	-2.899892
H	-0.228603	-4.815326	1.287774
C	0.000000	0.000000	0.000000
C	0.070542	0.841660	1.113020
C	0.187101	2.227746	0.820578
H	0.038051	0.454925	2.142881
C	0.208076	2.475009	-0.563588
S	0.080917	0.967235	-1.464748
C	0.276318	3.288613	1.882380
H	0.238704	2.842244	2.894974
H	-0.557951	4.017140	1.808137
H	1.220618	3.867466	1.808230
H	0.288286	3.429678	-1.097114
$end

$rem
JOBTYPE		SP
EXCHANGE	HF
CORRELATION	pRIMP2
BASIS		cc-pvtz
METHOD		rimp2
AUX_BASIS	rimp2-cc-pvtz
SOLVENT_METHOD	PCM
PURECART	11111
SYMMETRY	false
MEM_TOTAL	110000
SCF_CONVERGENCE = 6
THRESH=10
GUI = 2
$end

$solvent
dielectric 4.90
$end
--------------------------------------------------------------

             Standard Nuclear Orientation (Angstroms)
    I     Atom           X                Y                Z
 ----------------------------------------------------------------
    1      C      -0.1268760000    -3.8878000000     0.7132640000
    2      C       0.1137840000    -3.7014560000    -0.6512670000
    3      C       0.1880430000    -2.3451700000    -1.0687870000
    4      H       0.2360190000    -4.5452330000    -1.3467820000
    5      C       0.0000000000    -1.4501350000     0.0000000000
    6      S      -0.2656120000    -2.3213340000     1.5042470000
    7      C       0.4393570000    -1.9344390000    -2.4930590000
    8      H       0.5543780000    -2.8197990000    -3.1478090000
    9      H       1.3628990000    -1.3262100000    -2.5899870000
   10      H      -0.3947860000    -1.3253740000    -2.8998920000
   11      H      -0.2286030000    -4.8153260000     1.2877740000
   12      C       0.0000000000     0.0000000000     0.0000000000
   13      C       0.0705420000     0.8416600000     1.1130200000
   14      C       0.1871010000     2.2277460000     0.8205780000
   15      H       0.0380510000     0.4549250000     2.1428810000
   16      C       0.2080760000     2.4750090000    -0.5635880000
   17      S       0.0809170000     0.9672350000    -1.4647480000
   18      C       0.2763180000     3.2886130000     1.8823800000
   19      H       0.2387040000     2.8422440000     2.8949740000
   20      H      -0.5579510000     4.0171400000     1.8081370000
   21      H       1.2206180000     3.8674660000     1.8082300000
   22      H       0.2882860000     3.4296780000    -1.0971140000
 ----------------------------------------------------------------

   10   -1179.6859984081      5.38e-07  Convergence criterion met
 Total energy in the final basis set =    -1179.6859984081
        RIMP2         total energy =     -1181.6662305195 a.u.

                    Orbital Energies (a.u.)
 --------------------------------------------------------------

 Alpha MOs
 -- Occupied --
-91.9859 -91.9854 -11.2847 -11.2791 -11.2736 -11.2618 -11.2540 -11.2521
-11.2440 -11.2388 -11.2302 -11.2289  -8.9857  -8.9851  -6.6666  -6.6661
 -6.6660  -6.6655  -6.6654  -6.6648  -1.1809  -1.1501  -1.0414  -1.0257
 -0.9985  -0.9526  -0.9148  -0.8956  -0.7996  -0.7650  -0.7193  -0.6960
 -0.6633  -0.6160  -0.5840  -0.5820  -0.5772  -0.5696  -0.5528  -0.5335
 -0.5234  -0.5205  -0.5109  -0.4975  -0.4909  -0.4679  -0.4512  -0.3700
 -0.3438  -0.3400  -0.2694

          Ground-State Mulliken Net Atomic Charges

     Atom                 Charge (a.u.)
  ----------------------------------------
      1 C                    -0.211069
      2 C                    -0.255790
      3 C                     0.053392
      4 H                     0.185966
      5 C                    -0.026960
      6 S                     0.009559
      7 C                    -0.321914
      8 H                     0.117957
      9 H                     0.119335
     10 H                     0.112795
     11 H                     0.207301
     12 C                     0.056978
     13 C                    -0.265896
     14 C                     0.030801
     15 H                     0.176196
     16 C                    -0.257208
     17 S                     0.020134
     18 C                    -0.271043
     19 H                     0.102878
     20 H                     0.108494
     21 H                     0.108524
     22 H                     0.199569
  ----------------------------------------
  Sum of atomic charges =     0.000000

                    Cartesian Multipole Moments
 -----------------------------------------------------------------
    Charge (ESU x 10^10)
                -0.0000
    Dipole Moment (Debye)
         X       0.4349      Y       0.0051      Z      -0.1560
       Tot       0.4620
    Quadrupole Moments (Debye-Ang)
        XX     -92.5101     XY       0.4799     YY     -68.6152
        XZ      -1.1123     YZ       3.5023     ZZ     -79.9640

 Total job time:  52.98s(wall), 1828.55s(cpu)
        *  Thank you very much for using Q-Chem.  Have a nice day.  *
