 Q-Chem 5.4, Q-Chem, Inc., Pleasanton, CA (2021)
 Q-Chem 5.4.0 for Intel X86 EM64T Linux

User input:
--------------------------------------------------------------
$molecule
0 1
C	-0.681143	-3.887800	0.246754
C	0.620906	-3.701456	-0.227093
C	1.019618	-2.345170	-0.371543
H	1.284357	-4.545233	-0.468992
C	0.000000	-1.450135	0.000000
S	-1.435522	-2.321334	0.522097
C	2.378731	-1.934439	-0.866035
H	3.003272	-2.819799	-1.093799
H	2.924444	-1.326210	-0.114688
H	2.313987	-1.325374	-1.791841
H	-1.229547	-4.815326	0.445911
C	0.000000	0.000000	0.000000
C	0.729909	0.424971	1.113020
C	1.932179	1.124518	0.820578
H	0.394478	0.229765	2.142881
C	2.146756	1.249161	-0.563588
S	0.838724	0.488500	-1.464748
C	2.852364	1.659924	1.882380
H	2.465145	1.434710	2.894974
H	2.970621	2.761183	1.808137
H	3.868160	1.218416	1.808230
H	2.974781	1.731032	-1.097114
$end

$rem
JOBTYPE		SP
EXCHANGE	HF
CORRELATION	pRIMP2
BASIS		cc-pvtz
METHOD		rimp2
AUX_BASIS	rimp2-cc-pvtz
SOLVENT_METHOD	PCM
PURECART	11111
SYMMETRY	false
MEM_TOTAL	110000
SCF_CONVERGENCE = 6
THRESH=10
GUI = 2
$end

$solvent
dielectric 4.90
$end
--------------------------------------------------------------

             Standard Nuclear Orientation (Angstroms)
    I     Atom           X                Y                Z
 ----------------------------------------------------------------
    1      C      -0.6811430000    -3.8878000000     0.2467540000
    2      C       0.6209060000    -3.7014560000    -0.2270930000
    3      C       1.0196180000    -2.3451700000    -0.3715430000
    4      H       1.2843570000    -4.5452330000    -0.4689920000
    5      C       0.0000000000    -1.4501350000     0.0000000000
    6      S      -1.4355220000    -2.3213340000     0.5220970000
    7      C       2.3787310000    -1.9344390000    -0.8660350000
    8      H       3.0032720000    -2.8197990000    -1.0937990000
    9      H       2.9244440000    -1.3262100000    -0.1146880000
   10      H       2.3139870000    -1.3253740000    -1.7918410000
   11      H      -1.2295470000    -4.8153260000     0.4459110000
   12      C       0.0000000000     0.0000000000     0.0000000000
   13      C       0.7299090000     0.4249710000     1.1130200000
   14      C       1.9321790000     1.1245180000     0.8205780000
   15      H       0.3944780000     0.2297650000     2.1428810000
   16      C       2.1467560000     1.2491610000    -0.5635880000
   17      S       0.8387240000     0.4885000000    -1.4647480000
   18      C       2.8523640000     1.6599240000     1.8823800000
   19      H       2.4651450000     1.4347100000     2.8949740000
   20      H       2.9706210000     2.7611830000     1.8081370000
   21      H       3.8681600000     1.2184160000     1.8082300000
   22      H       2.9747810000     1.7310320000    -1.0971140000
 ----------------------------------------------------------------

   11   -1179.6037627977      5.00e-07  Convergence criterion met
 Total energy in the final basis set =    -1179.6037627977
        RIMP2         total energy =     -1181.6048135832 a.u.

                    Orbital Energies (a.u.)
 --------------------------------------------------------------

 Alpha MOs
 -- Occupied --
-91.9812 -91.9744 -11.2890 -11.2768 -11.2669 -11.2594 -11.2541 -11.2521
-11.2378 -11.2367 -11.2321 -11.2184  -8.9821  -8.9744  -6.6628  -6.6620
 -6.6618  -6.6554  -6.6547  -6.6542  -1.1915  -1.1444  -1.0461  -1.0168
 -1.0001  -0.9524  -0.9121  -0.8894  -0.7936  -0.7558  -0.7359  -0.6941
 -0.6543  -0.6218  -0.5867  -0.5836  -0.5745  -0.5655  -0.5475  -0.5384
 -0.5240  -0.5223  -0.5123  -0.4890  -0.4651  -0.4615  -0.4398  -0.3540
 -0.3360  -0.3239  -0.2832

          Ground-State Mulliken Net Atomic Charges

     Atom                 Charge (a.u.)
  ----------------------------------------
      1 C                    -0.228587
      2 C                    -0.259495
      3 C                     0.036425
      4 H                     0.183117
      5 C                     0.007714
      6 S                    -0.008408
      7 C                    -0.326754
      8 H                     0.113559
      9 H                     0.117161
     10 H                     0.120882
     11 H                     0.198559
     12 C                    -0.157200
     13 C                    -0.092629
     14 C                    -0.033304
     15 H                     0.191204
     16 C                    -0.152749
     17 S                     0.036888
     18 C                    -0.267202
     19 H                     0.104182
     20 H                     0.110729
     21 H                     0.105022
     22 H                     0.200884
  ----------------------------------------
  Sum of atomic charges =     0.000000

                    Cartesian Multipole Moments
 -----------------------------------------------------------------
    Charge (ESU x 10^10)
                -0.0000
    Dipole Moment (Debye)
         X       4.3812      Y       1.0324      Z       1.1118
       Tot       4.6364
    Quadrupole Moments (Debye-Ang)
        XX     -78.0401     XY       3.5408     YY     -81.4592
        XZ      -1.3771     YZ       1.6013     ZZ     -84.7961

 Total job time:  56.15s(wall), 1958.57s(cpu)
        *  Thank you very much for using Q-Chem.  Have a nice day.  *
