 Q-Chem 5.4, Q-Chem, Inc., Pleasanton, CA (2021)
 Q-Chem 5.4.0 for Intel X86 EM64T Linux

User input:
--------------------------------------------------------------
$molecule
0 1
C	-0.361285	-3.887800	-0.627947
C	0.331462	-3.701456	0.572038
C	0.542953	-2.345170	0.939610
H	0.684893	-4.545233	1.183405
C	0.000000	-1.450135	0.000000
S	-0.763441	-2.321334	-1.323052
C	1.265941	-1.934439	2.192207
H	1.598695	-2.819799	2.767709
H	0.620770	-1.326210	2.860100
H	2.166438	-1.325374	1.967682
H	-0.652645	-4.815326	-1.133436
C	0.000000	0.000000	0.000000
C	0.645024	0.545262	1.113020
C	1.707554	1.442954	0.820578
H	0.348587	0.294774	2.142881
C	1.897227	1.602964	-0.563588
S	0.741155	0.626722	-1.464748
C	2.520787	2.130014	1.882380
H	2.178559	1.840981	2.894974
H	2.446016	3.235078	1.808137
H	3.597818	1.871604	1.808230
H	2.628997	2.221299	-1.097114
$end

$rem
JOBTYPE		SP
EXCHANGE	HF
CORRELATION	pRIMP2
BASIS		cc-pvtz
METHOD		rimp2
AUX_BASIS	rimp2-cc-pvtz
SOLVENT_METHOD	PCM
PURECART	11111
SYMMETRY	false
MEM_TOTAL	110000
SCF_CONVERGENCE = 6
THRESH=10
GUI = 2
$end

$solvent
dielectric 4.90
$end
--------------------------------------------------------------

             Standard Nuclear Orientation (Angstroms)
    I     Atom           X                Y                Z
 ----------------------------------------------------------------
    1      C      -0.3612850000    -3.8878000000    -0.6279470000
    2      C       0.3314620000    -3.7014560000     0.5720380000
    3      C       0.5429530000    -2.3451700000     0.9396100000
    4      H       0.6848930000    -4.5452330000     1.1834050000
    5      C       0.0000000000    -1.4501350000     0.0000000000
    6      S      -0.7634410000    -2.3213340000    -1.3230520000
    7      C       1.2659410000    -1.9344390000     2.1922070000
    8      H       1.5986950000    -2.8197990000     2.7677090000
    9      H       0.6207700000    -1.3262100000     2.8601000000
   10      H       2.1664380000    -1.3253740000     1.9676820000
   11      H      -0.6526450000    -4.8153260000    -1.1334360000
   12      C       0.0000000000     0.0000000000     0.0000000000
   13      C       0.6450240000     0.5452620000     1.1130200000
   14      C       1.7075540000     1.4429540000     0.8205780000
   15      H       0.3485870000     0.2947740000     2.1428810000
   16      C       1.8972270000     1.6029640000    -0.5635880000
   17      S       0.7411550000     0.6267220000    -1.4647480000
   18      C       2.5207870000     2.1300140000     1.8823800000
   19      H       2.1785590000     1.8409810000     2.8949740000
   20      H       2.4460160000     3.2350780000     1.8081370000
   21      H       3.5978180000     1.8716040000     1.8082300000
   22      H       2.6289970000     2.2212990000    -1.0971140000
 ----------------------------------------------------------------

   11   -1179.6311561128      4.49e-07  Convergence criterion met
 Total energy in the final basis set =    -1179.6311561128
        RIMP2         total energy =     -1181.6242081693 a.u.

                    Orbital Energies (a.u.)
 --------------------------------------------------------------

 Alpha MOs
 -- Occupied --
-91.9827 -91.9765 -11.2828 -11.2778 -11.2644 -11.2631 -11.2554 -11.2536
-11.2434 -11.2397 -11.2317 -11.2281  -8.9832  -8.9768  -6.6640  -6.6633
 -6.6628  -6.6578  -6.6572  -6.6566  -1.1872  -1.1472  -1.0444  -1.0255
 -0.9958  -0.9530  -0.9143  -0.8938  -0.7965  -0.7550  -0.7324  -0.7025
 -0.6551  -0.6175  -0.5967  -0.5839  -0.5699  -0.5594  -0.5489  -0.5410
 -0.5282  -0.5233  -0.5060  -0.4891  -0.4754  -0.4643  -0.4518  -0.3594
 -0.3447  -0.3362  -0.2698

          Ground-State Mulliken Net Atomic Charges

     Atom                 Charge (a.u.)
  ----------------------------------------
      1 C                    -0.221100
      2 C                    -0.258094
      3 C                     0.042172
      4 H                     0.183599
      5 C                    -0.005919
      6 S                    -0.003516
      7 C                    -0.297463
      8 H                     0.115042
      9 H                     0.098268
     10 H                     0.115520
     11 H                     0.202576
     12 C                    -0.086886
     13 C                    -0.192623
     14 C                     0.013844
     15 H                     0.199767
     16 C                    -0.198633
     17 S                     0.037306
     18 C                    -0.273880
     19 H                     0.104206
     20 H                     0.115377
     21 H                     0.108230
     22 H                     0.202209
  ----------------------------------------
  Sum of atomic charges =     0.000000

                    Cartesian Multipole Moments
 -----------------------------------------------------------------
    Charge (ESU x 10^10)
                -0.0000
    Dipole Moment (Debye)
         X       2.9931      Y       0.8690      Z       3.0565
       Tot       4.3653
    Quadrupole Moments (Debye-Ang)
        XX     -83.8130     XY       4.9210     YY     -77.3603
        XZ       3.3522     YZ      -1.4091     ZZ     -81.7054

 Total job time:  56.47s(wall), 1927.11s(cpu)
        *  Thank you very much for using Q-Chem.  Have a nice day.  *
