 Q-Chem 5.4, Q-Chem, Inc., Pleasanton, CA (2021)
 Q-Chem 5.4.0 for Intel X86 EM64T Linux

User input:
--------------------------------------------------------------
$molecule
0 1
C	-0.724460	-3.887800	-0.001092
C	0.661131	-3.701456	-0.001036
C	1.085203	-2.345170	-0.000406
H	1.367305	-4.545233	-0.001433
C	0.000000	-1.450135	0.000000
S	-1.527517	-2.321334	-0.000367
C	2.531478	-1.934439	-0.000233
H	3.196254	-2.819799	-0.000656
H	2.787305	-1.326210	0.892447
H	2.787282	-1.325374	-0.892350
H	-1.307907	-4.815326	-0.001511
C	0.000000	0.000000	0.000000
C	-0.003081	0.844605	1.113020
C	-0.007772	2.235575	0.820578
H	-0.001743	0.456510	2.142881
C	-0.008427	2.483726	-0.563588
S	-0.003691	0.970607	-1.464748
C	-0.011355	3.300181	1.882380
H	-0.009922	2.852233	2.894974
H	-0.905944	3.953225	1.808137
H	0.878901	3.959133	1.808230
H	-0.011727	3.441752	-1.097114
$end

$rem
JOBTYPE		SP
EXCHANGE	HF
CORRELATION	pRIMP2
BASIS		cc-pvtz
METHOD		rimp2
AUX_BASIS	rimp2-cc-pvtz
SOLVENT_METHOD	PCM
PURECART	11111
SYMMETRY	false
MEM_TOTAL	110000
SCF_CONVERGENCE = 6
THRESH=10
GUI = 2
$end

$solvent
dielectric 4.90
$end
--------------------------------------------------------------

             Standard Nuclear Orientation (Angstroms)
    I     Atom           X                Y                Z
 ----------------------------------------------------------------
    1      C      -0.7244600000    -3.8878000000    -0.0010920000
    2      C       0.6611310000    -3.7014560000    -0.0010360000
    3      C       1.0852030000    -2.3451700000    -0.0004060000
    4      H       1.3673050000    -4.5452330000    -0.0014330000
    5      C       0.0000000000    -1.4501350000     0.0000000000
    6      S      -1.5275170000    -2.3213340000    -0.0003670000
    7      C       2.5314780000    -1.9344390000    -0.0002330000
    8      H       3.1962540000    -2.8197990000    -0.0006560000
    9      H       2.7873050000    -1.3262100000     0.8924470000
   10      H       2.7872820000    -1.3253740000    -0.8923500000
   11      H      -1.3079070000    -4.8153260000    -0.0015110000
   12      C       0.0000000000     0.0000000000     0.0000000000
   13      C      -0.0030810000     0.8446050000     1.1130200000
   14      C      -0.0077720000     2.2355750000     0.8205780000
   15      H      -0.0017430000     0.4565100000     2.1428810000
   16      C      -0.0084270000     2.4837260000    -0.5635880000
   17      S      -0.0036910000     0.9706070000    -1.4647480000
   18      C      -0.0113550000     3.3001810000     1.8823800000
   19      H      -0.0099220000     2.8522330000     2.8949740000
   20      H      -0.9059440000     3.9532250000     1.8081370000
   21      H       0.8789010000     3.9591330000     1.8082300000
   22      H      -0.0117270000     3.4417520000    -1.0971140000
 ----------------------------------------------------------------

   10   -1179.6858698384      5.09e-07  Convergence criterion met
 Total energy in the final basis set =    -1179.6858698384
        RIMP2         total energy =     -1181.6633298164 a.u.

                    Orbital Energies (a.u.)
 --------------------------------------------------------------

 Alpha MOs
 -- Occupied --
-91.9856 -91.9852 -11.2790 -11.2733 -11.2730 -11.2650 -11.2539 -11.2508
-11.2421 -11.2417 -11.2292 -11.2291  -8.9850  -8.9848  -6.6659  -6.6656
 -6.6654  -6.6651  -6.6647  -6.6645  -1.1777  -1.1496  -1.0390  -1.0228
 -0.9968  -0.9540  -0.9132  -0.8924  -0.7999  -0.7536  -0.7298  -0.6948
 -0.6622  -0.6165  -0.5823  -0.5792  -0.5708  -0.5689  -0.5515  -0.5307
 -0.5293  -0.5196  -0.5072  -0.4922  -0.4889  -0.4640  -0.4632  -0.3459
 -0.3384  -0.3130  -0.3123

          Ground-State Mulliken Net Atomic Charges

     Atom                 Charge (a.u.)
  ----------------------------------------
      1 C                    -0.212227
      2 C                    -0.248586
      3 C                     0.046511
      4 H                     0.185256
      5 C                    -0.048524
      6 S                     0.026339
      7 C                    -0.281777
      8 H                     0.107645
      9 H                     0.109937
     10 H                     0.110408
     11 H                     0.204091
     12 C                    -0.011733
     13 C                    -0.223864
     14 C                     0.016158
     15 H                     0.185565
     16 C                    -0.237723
     17 S                     0.026517
     18 C                    -0.271262
     19 H                     0.102875
     20 H                     0.108359
     21 H                     0.107795
     22 H                     0.198240
  ----------------------------------------
  Sum of atomic charges =     0.000000

                    Cartesian Multipole Moments
 -----------------------------------------------------------------
    Charge (ESU x 10^10)
                -0.0000
    Dipole Moment (Debye)
         X       1.5110      Y       0.2389      Z       1.4701
       Tot       2.1216
    Quadrupole Moments (Debye-Ang)
        XX     -86.1244     XY      -2.2876     YY     -68.7255
        XZ      -0.0213     YZ       1.1473     ZZ     -86.7510

 Total job time:  68.78s(wall), 2731.72s(cpu)
        *  Thank you very much for using Q-Chem.  Have a nice day.  *
