 Q-Chem 5.4, Q-Chem, Inc., Pleasanton, CA (2021)
 Q-Chem 5.4.0 for Intel X86 EM64T Linux

User input:
--------------------------------------------------------------
$molecule
0 1
C	-0.246754	-3.887800	-0.681143
C	0.227093	-3.701456	0.620906
C	0.371543	-2.345170	1.019618
H	0.468992	-4.545233	1.284357
C	0.000000	-1.450135	0.000000
S	-0.522097	-2.321334	-1.435522
C	0.866035	-1.934439	2.378731
H	1.093799	-2.819799	3.003272
H	0.114688	-1.326210	2.924444
H	1.791841	-1.325374	2.313987
H	-0.445911	-4.815326	-1.229547
C	0.000000	0.000000	0.000000
C	0.645024	0.545262	1.113020
C	1.707554	1.442954	0.820578
H	0.348587	0.294774	2.142881
C	1.897227	1.602964	-0.563588
S	0.741155	0.626722	-1.464748
C	2.520787	2.130014	1.882380
H	2.178559	1.840981	2.894974
H	2.446016	3.235078	1.808137
H	3.597818	1.871604	1.808230
H	2.628997	2.221299	-1.097114
$end

$rem
JOBTYPE		SP
EXCHANGE	HF
CORRELATION	pRIMP2
BASIS		cc-pvtz
METHOD		rimp2
AUX_BASIS	rimp2-cc-pvtz
SOLVENT_METHOD	PCM
PURECART	11111
SYMMETRY	false
MEM_TOTAL	110000
SCF_CONVERGENCE = 6
THRESH=10
GUI = 2
$end

$solvent
dielectric 4.90
$end
--------------------------------------------------------------

             Standard Nuclear Orientation (Angstroms)
    I     Atom           X                Y                Z
 ----------------------------------------------------------------
    1      C      -0.2467540000    -3.8878000000    -0.6811430000
    2      C       0.2270930000    -3.7014560000     0.6209060000
    3      C       0.3715430000    -2.3451700000     1.0196180000
    4      H       0.4689920000    -4.5452330000     1.2843570000
    5      C       0.0000000000    -1.4501350000     0.0000000000
    6      S      -0.5220970000    -2.3213340000    -1.4355220000
    7      C       0.8660350000    -1.9344390000     2.3787310000
    8      H       1.0937990000    -2.8197990000     3.0032720000
    9      H       0.1146880000    -1.3262100000     2.9244440000
   10      H       1.7918410000    -1.3253740000     2.3139870000
   11      H      -0.4459110000    -4.8153260000    -1.2295470000
   12      C       0.0000000000     0.0000000000     0.0000000000
   13      C       0.6450240000     0.5452620000     1.1130200000
   14      C       1.7075540000     1.4429540000     0.8205780000
   15      H       0.3485870000     0.2947740000     2.1428810000
   16      C       1.8972270000     1.6029640000    -0.5635880000
   17      S       0.7411550000     0.6267220000    -1.4647480000
   18      C       2.5207870000     2.1300140000     1.8823800000
   19      H       2.1785590000     1.8409810000     2.8949740000
   20      H       2.4460160000     3.2350780000     1.8081370000
   21      H       3.5978180000     1.8716040000     1.8082300000
   22      H       2.6289970000     2.2212990000    -1.0971140000
 ----------------------------------------------------------------

   11   -1179.6299075949      4.90e-07  Convergence criterion met
 Total energy in the final basis set =    -1179.6299075949
        RIMP2         total energy =     -1181.6230944915 a.u.

                    Orbital Energies (a.u.)
 --------------------------------------------------------------

 Alpha MOs
 -- Occupied --
-91.9832 -91.9765 -11.2834 -11.2789 -11.2644 -11.2632 -11.2552 -11.2538
-11.2420 -11.2396 -11.2317 -11.2290  -8.9837  -8.9769  -6.6645  -6.6638
 -6.6633  -6.6579  -6.6573  -6.6567  -1.1878  -1.1471  -1.0448  -1.0263
 -0.9956  -0.9533  -0.9143  -0.8946  -0.7973  -0.7558  -0.7309  -0.7031
 -0.6550  -0.6170  -0.5975  -0.5842  -0.5702  -0.5595  -0.5495  -0.5417
 -0.5296  -0.5225  -0.5045  -0.4890  -0.4776  -0.4656  -0.4494  -0.3641
 -0.3472  -0.3340  -0.2666

          Ground-State Mulliken Net Atomic Charges

     Atom                 Charge (a.u.)
  ----------------------------------------
      1 C                    -0.227627
      2 C                    -0.253598
      3 C                     0.039578
      4 H                     0.183495
      5 C                    -0.016651
      6 S                    -0.003436
      7 C                    -0.296843
      8 H                     0.115143
      9 H                     0.098033
     10 H                     0.113124
     11 H                     0.202582
     12 C                    -0.070456
     13 C                    -0.197362
     14 C                     0.016374
     15 H                     0.205534
     16 C                    -0.197350
     17 S                     0.035423
     18 C                    -0.274141
     19 H                     0.103349
     20 H                     0.113956
     21 H                     0.108507
     22 H                     0.202364
  ----------------------------------------
  Sum of atomic charges =     0.000000

                    Cartesian Multipole Moments
 -----------------------------------------------------------------
    Charge (ESU x 10^10)
                -0.0000
    Dipole Moment (Debye)
         X       2.7628      Y       0.9658      Z       3.1295
       Tot       4.2848
    Quadrupole Moments (Debye-Ang)
        XX     -84.5869     XY       5.3071     YY     -77.6475
        XZ       2.6647     YZ      -1.6424     ZZ     -80.8254

 Total job time:  56.66s(wall), 1969.36s(cpu)
        *  Thank you very much for using Q-Chem.  Have a nice day.  *
