 Q-Chem 5.4, Q-Chem, Inc., Pleasanton, CA (2021)
 Q-Chem 5.4.0 for Intel X86 EM64T Linux

User input:
--------------------------------------------------------------
$molecule
0 1
C	0.466510	-3.887800	-0.554267
C	-0.424173	-3.701456	0.507121
C	-0.697244	-2.345170	0.831575
H	-0.877789	-4.545233	1.048337
C	0.000000	-1.450135	0.000000
S	0.982150	-2.321334	-1.169911
C	-1.627024	-1.934439	1.939374
H	-2.054010	-2.819799	2.448894
H	-2.475299	-1.326210	1.561545
H	-1.108051	-1.325374	2.708773
H	0.841863	-4.815326	-1.000944
C	0.000000	0.000000	0.000000
C	0.419634	0.732990	1.113020
C	1.111057	1.939951	0.820578
H	0.226746	0.396221	2.142881
C	1.234565	2.155183	-0.563588
S	0.482106	0.842416	-1.464748
C	1.640257	2.863718	1.882380
H	1.417524	2.475067	2.894974
H	1.192042	3.876565	1.808137
H	2.740717	2.989259	1.808230
H	1.710720	2.986508	-1.097114
$end

$rem
JOBTYPE		SP
EXCHANGE	HF
CORRELATION	pRIMP2
BASIS		cc-pvtz
METHOD		rimp2
AUX_BASIS	rimp2-cc-pvtz
SOLVENT_METHOD	PCM
PURECART	11111
SYMMETRY	false
MEM_TOTAL	110000
SCF_CONVERGENCE = 6
THRESH=10
GUI = 2
$end

$solvent
dielectric 4.90
$end
--------------------------------------------------------------

             Standard Nuclear Orientation (Angstroms)
    I     Atom           X                Y                Z
 ----------------------------------------------------------------
    1      C       0.4665100000    -3.8878000000    -0.5542670000
    2      C      -0.4241730000    -3.7014560000     0.5071210000
    3      C      -0.6972440000    -2.3451700000     0.8315750000
    4      H      -0.8777890000    -4.5452330000     1.0483370000
    5      C       0.0000000000    -1.4501350000     0.0000000000
    6      S       0.9821500000    -2.3213340000    -1.1699110000
    7      C      -1.6270240000    -1.9344390000     1.9393740000
    8      H      -2.0540100000    -2.8197990000     2.4488940000
    9      H      -2.4752990000    -1.3262100000     1.5615450000
   10      H      -1.1080510000    -1.3253740000     2.7087730000
   11      H       0.8418630000    -4.8153260000    -1.0009440000
   12      C       0.0000000000     0.0000000000     0.0000000000
   13      C       0.4196340000     0.7329900000     1.1130200000
   14      C       1.1110570000     1.9399510000     0.8205780000
   15      H       0.2267460000     0.3962210000     2.1428810000
   16      C       1.2345650000     2.1551830000    -0.5635880000
   17      S       0.4821060000     0.8424160000    -1.4647480000
   18      C       1.6402570000     2.8637180000     1.8823800000
   19      H       1.4175240000     2.4750670000     2.8949740000
   20      H       1.1920420000     3.8765650000     1.8081370000
   21      H       2.7407170000     2.9892590000     1.8082300000
   22      H       1.7107200000     2.9865080000    -1.0971140000
 ----------------------------------------------------------------

   10   -1179.6694556239      5.27e-07  Convergence criterion met
 Total energy in the final basis set =    -1179.6694556239
        RIMP2         total energy =     -1181.6525316081 a.u.

                    Orbital Energies (a.u.)
 --------------------------------------------------------------

 Alpha MOs
 -- Occupied --
-91.9866 -91.9840 -11.2778 -11.2770 -11.2713 -11.2664 -11.2536 -11.2477
-11.2458 -11.2412 -11.2303 -11.2286  -8.9864  -8.9837  -6.6673  -6.6667
 -6.6661  -6.6646  -6.6640  -6.6633  -1.1819  -1.1491  -1.0421  -1.0230
 -0.9962  -0.9558  -0.9116  -0.8938  -0.8010  -0.7523  -0.7313  -0.6971
 -0.6595  -0.6161  -0.5881  -0.5805  -0.5700  -0.5642  -0.5512  -0.5369
 -0.5306  -0.5196  -0.5072  -0.4908  -0.4818  -0.4736  -0.4550  -0.3617
 -0.3412  -0.3374  -0.2746

          Ground-State Mulliken Net Atomic Charges

     Atom                 Charge (a.u.)
  ----------------------------------------
      1 C                    -0.228403
      2 C                    -0.246775
      3 C                     0.028367
      4 H                     0.183709
      5 C                    -0.020884
      6 S                     0.021234
      7 C                    -0.295507
      8 H                     0.109992
      9 H                     0.111580
     10 H                     0.104299
     11 H                     0.203417
     12 C                    -0.022929
     13 C                    -0.189470
     14 C                     0.007202
     15 H                     0.193725
     16 C                    -0.216414
     17 S                     0.007865
     18 C                    -0.270381
     19 H                     0.102159
     20 H                     0.108523
     21 H                     0.108230
     22 H                     0.200459
  ----------------------------------------
  Sum of atomic charges =     0.000000

                    Cartesian Multipole Moments
 -----------------------------------------------------------------
    Charge (ESU x 10^10)
                -0.0000
    Dipole Moment (Debye)
         X       0.2190      Y       0.7424      Z       2.6268
       Tot       2.7384
    Quadrupole Moments (Debye-Ang)
        XX     -87.2439     XY       6.4169     YY     -72.6018
        XZ      -2.5637     YZ      -0.8193     ZZ     -82.7333

 Total job time:  47.06s(wall), 1689.81s(cpu)
        *  Thank you very much for using Q-Chem.  Have a nice day.  *
