 Q-Chem 5.4, Q-Chem, Inc., Pleasanton, CA (2021)
 Q-Chem 5.4.0 for Intel X86 EM64T Linux

User input:
--------------------------------------------------------------
$molecule
0 1
C	-0.248806	-3.887800	0.680396
C	0.225147	-3.701456	-0.621614
C	0.370780	-2.345170	-1.019896
H	0.466300	-4.545233	-1.285337
C	0.000000	-1.450135	0.000000
S	-0.522786	-2.321334	1.435271
C	0.865597	-1.934439	-2.378891
H	1.092567	-2.819799	-3.003720
H	1.791940	-1.326210	-2.313975
H	0.114772	-1.325374	-2.924390
H	-0.448750	-4.815326	1.228514
C	0.000000	0.000000	0.000000
C	0.285976	0.794723	1.113020
C	0.757308	2.103412	0.820578
H	0.154498	0.429575	2.142881
C	0.841565	2.336821	-0.563588
S	0.328498	0.913334	-1.464748
C	1.118059	3.105040	1.882380
H	0.966197	2.683616	2.894974
H	0.500773	4.024668	1.808137
H	2.180000	3.419766	1.808230
H	1.166129	3.238200	-1.097114
$end

$rem
JOBTYPE		SP
EXCHANGE	HF
CORRELATION	pRIMP2
BASIS		cc-pvtz
METHOD		rimp2
AUX_BASIS	rimp2-cc-pvtz
SOLVENT_METHOD	PCM
PURECART	11111
SYMMETRY	false
MEM_TOTAL	110000
SCF_CONVERGENCE = 6
THRESH=10
GUI = 2
$end

$solvent
dielectric 4.90
$end
--------------------------------------------------------------

             Standard Nuclear Orientation (Angstroms)
    I     Atom           X                Y                Z
 ----------------------------------------------------------------
    1      C      -0.2488060000    -3.8878000000     0.6803960000
    2      C       0.2251470000    -3.7014560000    -0.6216140000
    3      C       0.3707800000    -2.3451700000    -1.0198960000
    4      H       0.4663000000    -4.5452330000    -1.2853370000
    5      C       0.0000000000    -1.4501350000     0.0000000000
    6      S      -0.5227860000    -2.3213340000     1.4352710000
    7      C       0.8655970000    -1.9344390000    -2.3788910000
    8      H       1.0925670000    -2.8197990000    -3.0037200000
    9      H       1.7919400000    -1.3262100000    -2.3139750000
   10      H       0.1147720000    -1.3253740000    -2.9243900000
   11      H      -0.4487500000    -4.8153260000     1.2285140000
   12      C       0.0000000000     0.0000000000     0.0000000000
   13      C       0.2859760000     0.7947230000     1.1130200000
   14      C       0.7573080000     2.1034120000     0.8205780000
   15      H       0.1544980000     0.4295750000     2.1428810000
   16      C       0.8415650000     2.3368210000    -0.5635880000
   17      S       0.3284980000     0.9133340000    -1.4647480000
   18      C       1.1180590000     3.1050400000     1.8823800000
   19      H       0.9661970000     2.6836160000     2.8949740000
   20      H       0.5007730000     4.0246680000     1.8081370000
   21      H       2.1800000000     3.4197660000     1.8082300000
   22      H       1.1661290000     3.2382000000    -1.0971140000
 ----------------------------------------------------------------

   10   -1179.6761606594      5.06e-07  Convergence criterion met
 Total energy in the final basis set =    -1179.6761606594
        RIMP2         total energy =     -1181.6589890755 a.u.

                    Orbital Energies (a.u.)
 --------------------------------------------------------------

 Alpha MOs
 -- Occupied --
-91.9845 -91.9843 -11.2818 -11.2790 -11.2711 -11.2648 -11.2519 -11.2510
-11.2430 -11.2417 -11.2291 -11.2282  -8.9844  -8.9842  -6.6653  -6.6651
 -6.6647  -6.6646  -6.6641  -6.6639  -1.1811  -1.1495  -1.0417  -1.0242
 -0.9982  -0.9526  -0.9135  -0.8954  -0.7983  -0.7641  -0.7206  -0.6958
 -0.6616  -0.6161  -0.5836  -0.5805  -0.5776  -0.5695  -0.5519  -0.5329
 -0.5246  -0.5202  -0.5114  -0.4967  -0.4862  -0.4665  -0.4509  -0.3682
 -0.3427  -0.3386  -0.2696

          Ground-State Mulliken Net Atomic Charges

     Atom                 Charge (a.u.)
  ----------------------------------------
      1 C                    -0.214647
      2 C                    -0.251463
      3 C                     0.049871
      4 H                     0.185747
      5 C                    -0.037178
      6 S                     0.009929
      7 C                    -0.312438
      8 H                     0.113121
      9 H                     0.120985
     10 H                     0.109949
     11 H                     0.205633
     12 C                     0.029808
     13 C                    -0.237225
     14 C                     0.022305
     15 H                     0.178763
     16 C                    -0.241922
     17 S                     0.019472
     18 C                    -0.269656
     19 H                     0.102972
     20 H                     0.108490
     21 H                     0.107978
     22 H                     0.199507
  ----------------------------------------
  Sum of atomic charges =     0.000000

                    Cartesian Multipole Moments
 -----------------------------------------------------------------
    Charge (ESU x 10^10)
                -0.0000
    Dipole Moment (Debye)
         X       1.2322      Y       0.2688      Z      -0.0773
       Tot       1.2636
    Quadrupole Moments (Debye-Ang)
        XX     -90.6666     XY       2.6779     YY     -70.5878
        XZ      -1.8651     YZ       3.2125     ZZ     -80.6170

 Total job time:  56.10s(wall), 1732.58s(cpu)
        *  Thank you very much for using Q-Chem.  Have a nice day.  *
