 Q-Chem 5.4, Q-Chem, Inc., Pleasanton, CA (2021)
 Q-Chem 5.4.0 for Intel X86 EM64T Linux

User input:
--------------------------------------------------------------
$molecule
0 1
C	-0.713644	-3.887800	0.124726
C	0.650907	-3.701456	-0.115824
C	1.068646	-2.345170	-0.188844
H	1.346284	-4.545233	-0.238841
C	0.000000	-1.450135	0.000000
S	-1.504375	-2.321334	0.264890
C	2.492978	-1.934439	-0.439816
H	3.147582	-2.819799	-0.555669
H	2.899931	-1.326210	0.394879
H	2.589982	-1.325374	-1.362799
H	-1.288299	-4.815326	0.225628
C	0.000000	0.000000	0.000000
C	0.354153	0.766774	1.113020
C	0.937751	2.029404	0.820578
H	0.191350	0.414475	2.142881
C	1.042030	2.254581	-0.563588
S	0.406851	0.881228	-1.464748
C	1.384426	2.995779	1.882380
H	1.196413	2.589194	2.894974
H	0.849641	3.965707	1.808137
H	2.469756	3.216753	1.808230
H	1.443919	3.124243	-1.097114
$end

$rem
JOBTYPE		SP
EXCHANGE	HF
CORRELATION	pRIMP2
BASIS		cc-pvtz
METHOD		rimp2
AUX_BASIS	rimp2-cc-pvtz
SOLVENT_METHOD	PCM
PURECART	11111
SYMMETRY	false
MEM_TOTAL	110000
SCF_CONVERGENCE = 6
THRESH=10
GUI = 2
$end

$solvent
dielectric 4.90
$end
--------------------------------------------------------------

             Standard Nuclear Orientation (Angstroms)
    I     Atom           X                Y                Z
 ----------------------------------------------------------------
    1      C      -0.7136440000    -3.8878000000     0.1247260000
    2      C       0.6509070000    -3.7014560000    -0.1158240000
    3      C       1.0686460000    -2.3451700000    -0.1888440000
    4      H       1.3462840000    -4.5452330000    -0.2388410000
    5      C       0.0000000000    -1.4501350000     0.0000000000
    6      S      -1.5043750000    -2.3213340000     0.2648900000
    7      C       2.4929780000    -1.9344390000    -0.4398160000
    8      H       3.1475820000    -2.8197990000    -0.5556690000
    9      H       2.8999310000    -1.3262100000     0.3948790000
   10      H       2.5899820000    -1.3253740000    -1.3627990000
   11      H      -1.2882990000    -4.8153260000     0.2256280000
   12      C       0.0000000000     0.0000000000     0.0000000000
   13      C       0.3541530000     0.7667740000     1.1130200000
   14      C       0.9377510000     2.0294040000     0.8205780000
   15      H       0.1913500000     0.4144750000     2.1428810000
   16      C       1.0420300000     2.2545810000    -0.5635880000
   17      S       0.4068510000     0.8812280000    -1.4647480000
   18      C       1.3844260000     2.9957790000     1.8823800000
   19      H       1.1964130000     2.5891940000     2.8949740000
   20      H       0.8496410000     3.9657070000     1.8081370000
   21      H       2.4697560000     3.2167530000     1.8082300000
   22      H       1.4439190000     3.1242430000    -1.0971140000
 ----------------------------------------------------------------

   10   -1179.6741886086      5.56e-07  Convergence criterion met
 Total energy in the final basis set =    -1179.6741886086
        RIMP2         total energy =     -1181.6559840803 a.u.

                    Orbital Energies (a.u.)
 --------------------------------------------------------------

 Alpha MOs
 -- Occupied --
-91.9852 -91.9828 -11.2747 -11.2737 -11.2701 -11.2695 -11.2517 -11.2512
-11.2460 -11.2413 -11.2297 -11.2274  -8.9848  -8.9824  -6.6656  -6.6651
 -6.6645  -6.6633  -6.6627  -6.6622  -1.1790  -1.1490  -1.0402  -1.0207
 -0.9974  -0.9538  -0.9127  -0.8921  -0.7979  -0.7541  -0.7305  -0.6951
 -0.6604  -0.6170  -0.5813  -0.5795  -0.5724  -0.5693  -0.5507  -0.5307
 -0.5282  -0.5199  -0.5104  -0.4918  -0.4816  -0.4644  -0.4598  -0.3452
 -0.3412  -0.3197  -0.3019

          Ground-State Mulliken Net Atomic Charges

     Atom                 Charge (a.u.)
  ----------------------------------------
      1 C                    -0.215550
      2 C                    -0.251331
      3 C                     0.065699
      4 H                     0.184697
      5 C                    -0.032532
      6 S                     0.023735
      7 C                    -0.284435
      8 H                     0.109626
      9 H                     0.110390
     10 H                     0.111748
     11 H                     0.202949
     12 C                    -0.056084
     13 C                    -0.225286
     14 C                     0.025270
     15 H                     0.185588
     16 C                    -0.230101
     17 S                     0.027666
     18 C                    -0.269639
     19 H                     0.103150
     20 H                     0.108220
     21 H                     0.107404
     22 H                     0.198816
  ----------------------------------------
  Sum of atomic charges =     0.000000

                    Cartesian Multipole Moments
 -----------------------------------------------------------------
    Charge (ESU x 10^10)
                -0.0000
    Dipole Moment (Debye)
         X       2.4125      Y       0.4961      Z       1.2406
       Tot       2.7578
    Quadrupole Moments (Debye-Ang)
        XX     -84.5977     XY       2.0036     YY     -71.3276
        XZ      -0.6894     YZ       1.4375     ZZ     -86.3705

 Total job time:  52.76s(wall), 1757.63s(cpu)
        *  Thank you very much for using Q-Chem.  Have a nice day.  *
