 Q-Chem 5.4, Q-Chem, Inc., Pleasanton, CA (2021)
 Q-Chem 5.4.0 for Intel X86 EM64T Linux

User input:
--------------------------------------------------------------
$molecule
0 1
C	-0.248806	-3.887800	0.680396
C	0.225147	-3.701456	-0.621614
C	0.370780	-2.345170	-1.019896
H	0.466300	-4.545233	-1.285337
C	-0.000000	-1.450135	-0.000000
S	-0.522786	-2.321334	1.435271
C	0.865597	-1.934439	-2.378891
H	1.092567	-2.819799	-3.003720
H	1.791940	-1.326210	-2.313975
H	0.114772	-1.325374	-2.924390
H	-0.448750	-4.815326	1.228514
C	0.000000	0.000000	0.000000
C	0.215623	0.816623	1.113020
C	0.571102	2.161411	0.820578
H	0.116470	0.441406	2.142881
C	0.634696	2.401276	-0.563588
S	0.247646	0.938489	-1.464748
C	0.843182	3.190669	1.882380
H	0.728628	2.757614	2.894974
H	0.148095	4.052998	1.808137
H	1.873652	3.596752	1.808230
H	0.879464	3.327513	-1.097114
$end

$rem
JOBTYPE		SP
EXCHANGE	HF
CORRELATION	pRIMP2
BASIS		cc-pvtz
METHOD		rimp2
AUX_BASIS	rimp2-cc-pvtz
SOLVENT_METHOD	PCM
PURECART	11111
SYMMETRY	false
MEM_TOTAL	110000
SCF_CONVERGENCE = 6
THRESH=10
GUI = 2
$end

$solvent
dielectric 4.90
$end
--------------------------------------------------------------

             Standard Nuclear Orientation (Angstroms)
    I     Atom           X                Y                Z
 ----------------------------------------------------------------
    1      C      -0.2488060000    -3.8878000000     0.6803960000
    2      C       0.2251470000    -3.7014560000    -0.6216140000
    3      C       0.3707800000    -2.3451700000    -1.0198960000
    4      H       0.4663000000    -4.5452330000    -1.2853370000
    5      C       0.0000000000    -1.4501350000     0.0000000000
    6      S      -0.5227860000    -2.3213340000     1.4352710000
    7      C       0.8655970000    -1.9344390000    -2.3788910000
    8      H       1.0925670000    -2.8197990000    -3.0037200000
    9      H       1.7919400000    -1.3262100000    -2.3139750000
   10      H       0.1147720000    -1.3253740000    -2.9243900000
   11      H      -0.4487500000    -4.8153260000     1.2285140000
   12      C       0.0000000000     0.0000000000     0.0000000000
   13      C       0.2156230000     0.8166230000     1.1130200000
   14      C       0.5711020000     2.1614110000     0.8205780000
   15      H       0.1164700000     0.4414060000     2.1428810000
   16      C       0.6346960000     2.4012760000    -0.5635880000
   17      S       0.2476460000     0.9384890000    -1.4647480000
   18      C       0.8431820000     3.1906690000     1.8823800000
   19      H       0.7286280000     2.7576140000     2.8949740000
   20      H       0.1480950000     4.0529980000     1.8081370000
   21      H       1.8736520000     3.5967520000     1.8082300000
   22      H       0.8794640000     3.3275130000    -1.0971140000
 ----------------------------------------------------------------

   10   -1179.6805700815      5.07e-07  Convergence criterion met
 Total energy in the final basis set =    -1179.6805700815
        RIMP2         total energy =     -1181.6621458190 a.u.

                    Orbital Energies (a.u.)
 --------------------------------------------------------------

 Alpha MOs
 -- Occupied --
-91.9851 -91.9849 -11.2829 -11.2789 -11.2721 -11.2637 -11.2522 -11.2519
-11.2434 -11.2406 -11.2290 -11.2289  -8.9849  -8.9847  -6.6658  -6.6655
 -6.6653  -6.6650  -6.6646  -6.6644  -1.1808  -1.1498  -1.0415  -1.0246
 -0.9983  -0.9527  -0.9139  -0.8953  -0.7988  -0.7641  -0.7204  -0.6958
 -0.6622  -0.6161  -0.5837  -0.5805  -0.5774  -0.5696  -0.5522  -0.5330
 -0.5245  -0.5201  -0.5111  -0.4969  -0.4879  -0.4671  -0.4516  -0.3680
 -0.3431  -0.3390  -0.2702

          Ground-State Mulliken Net Atomic Charges

     Atom                 Charge (a.u.)
  ----------------------------------------
      1 C                    -0.213636
      2 C                    -0.251655
      3 C                     0.048510
      4 H                     0.185816
      5 C                    -0.034470
      6 S                     0.012038
      7 C                    -0.314453
      8 H                     0.114064
      9 H                     0.121062
     10 H                     0.110444
     11 H                     0.205983
     12 C                     0.036599
     13 C                    -0.243399
     14 C                     0.022623
     15 H                     0.178387
     16 C                    -0.244861
     17 S                     0.018080
     18 C                    -0.270162
     19 H                     0.102930
     20 H                     0.108464
     21 H                     0.108173
     22 H                     0.199461
  ----------------------------------------
  Sum of atomic charges =     0.000000

                    Cartesian Multipole Moments
 -----------------------------------------------------------------
    Charge (ESU x 10^10)
                -0.0000
    Dipole Moment (Debye)
         X       1.0439      Y       0.1785      Z      -0.0747
       Tot       1.0617
    Quadrupole Moments (Debye-Ang)
        XX     -91.2401     XY       1.8806     YY     -69.7480
        XZ      -1.9516     YZ       3.2631     ZZ     -80.6144

 Total job time:  53.25s(wall), 1775.94s(cpu)
        *  Thank you very much for using Q-Chem.  Have a nice day.  *
