 Q-Chem 5.4, Q-Chem, Inc., Pleasanton, CA (2021)
 Q-Chem 5.4.0 for Intel X86 EM64T Linux

User input:
--------------------------------------------------------------
$molecule
0 1
C	0.126876	-3.887800	-0.713264
C	-0.113784	-3.701456	0.651267
C	-0.188043	-2.345170	1.068787
H	-0.236019	-4.545233	1.346782
C	0.000000	-1.450135	0.000000
S	0.265612	-2.321334	-1.504247
C	-0.439357	-1.934439	2.493059
H	-0.554378	-2.819799	3.147809
H	-1.362899	-1.326210	2.589987
H	0.394786	-1.325374	2.899892
H	0.228603	-4.815326	-1.287774
C	0.000000	0.000000	0.000000
C	0.645024	0.545262	1.113020
C	1.707554	1.442954	0.820578
H	0.348587	0.294774	2.142881
C	1.897227	1.602964	-0.563588
S	0.741155	0.626722	-1.464748
C	2.520787	2.130014	1.882380
H	2.178559	1.840981	2.894974
H	2.446016	3.235078	1.808137
H	3.597818	1.871604	1.808230
H	2.628997	2.221299	-1.097114
$end

$rem
JOBTYPE		SP
EXCHANGE	HF
CORRELATION	pRIMP2
BASIS		cc-pvtz
METHOD		rimp2
AUX_BASIS	rimp2-cc-pvtz
SOLVENT_METHOD	PCM
PURECART	11111
SYMMETRY	false
MEM_TOTAL	110000
SCF_CONVERGENCE = 6
THRESH=10
GUI = 2
$end

$solvent
dielectric 4.90
$end
--------------------------------------------------------------

             Standard Nuclear Orientation (Angstroms)
    I     Atom           X                Y                Z
 ----------------------------------------------------------------
    1      C       0.1268760000    -3.8878000000    -0.7132640000
    2      C      -0.1137840000    -3.7014560000     0.6512670000
    3      C      -0.1880430000    -2.3451700000     1.0687870000
    4      H      -0.2360190000    -4.5452330000     1.3467820000
    5      C       0.0000000000    -1.4501350000     0.0000000000
    6      S       0.2656120000    -2.3213340000    -1.5042470000
    7      C      -0.4393570000    -1.9344390000     2.4930590000
    8      H      -0.5543780000    -2.8197990000     3.1478090000
    9      H      -1.3628990000    -1.3262100000     2.5899870000
   10      H       0.3947860000    -1.3253740000     2.8998920000
   11      H       0.2286030000    -4.8153260000    -1.2877740000
   12      C       0.0000000000     0.0000000000     0.0000000000
   13      C       0.6450240000     0.5452620000     1.1130200000
   14      C       1.7075540000     1.4429540000     0.8205780000
   15      H       0.3485870000     0.2947740000     2.1428810000
   16      C       1.8972270000     1.6029640000    -0.5635880000
   17      S       0.7411550000     0.6267220000    -1.4647480000
   18      C       2.5207870000     2.1300140000     1.8823800000
   19      H       2.1785590000     1.8409810000     2.8949740000
   20      H       2.4460160000     3.2350780000     1.8081370000
   21      H       3.5978180000     1.8716040000     1.8082300000
   22      H       2.6289970000     2.2212990000    -1.0971140000
 ----------------------------------------------------------------

   11   -1179.6306775219      5.20e-07  Convergence criterion met
 Total energy in the final basis set =    -1179.6306775219
        RIMP2         total energy =     -1181.6232953363 a.u.

                    Orbital Energies (a.u.)
 --------------------------------------------------------------

 Alpha MOs
 -- Occupied --
-91.9853 -91.9780 -11.2855 -11.2801 -11.2672 -11.2588 -11.2577 -11.2556
-11.2388 -11.2362 -11.2320 -11.2276  -8.9859  -8.9781  -6.6667  -6.6660
 -6.6655  -6.6590  -6.6584  -6.6578  -1.1890  -1.1466  -1.0460  -1.0243
 -0.9964  -0.9550  -0.9117  -0.8947  -0.8000  -0.7558  -0.7301  -0.7014
 -0.6549  -0.6171  -0.5980  -0.5829  -0.5709  -0.5590  -0.5496  -0.5425
 -0.5329  -0.5193  -0.5044  -0.4878  -0.4834  -0.4668  -0.4449  -0.3712
 -0.3486  -0.3309  -0.2631

          Ground-State Mulliken Net Atomic Charges

     Atom                 Charge (a.u.)
  ----------------------------------------
      1 C                    -0.250569
      2 C                    -0.242758
      3 C                     0.027831
      4 H                     0.182210
      5 C                    -0.013364
      6 S                     0.002723
      7 C                    -0.304616
      8 H                     0.113840
      9 H                     0.110346
     10 H                     0.095070
     11 H                     0.201384
     12 C                    -0.064747
     13 C                    -0.143563
     14 C                    -0.008683
     15 H                     0.199751
     16 C                    -0.185945
     17 S                     0.024590
     18 C                    -0.267325
     19 H                     0.102310
     20 H                     0.109366
     21 H                     0.107982
     22 H                     0.204169
  ----------------------------------------
  Sum of atomic charges =     0.000000

                    Cartesian Multipole Moments
 -----------------------------------------------------------------
    Charge (ESU x 10^10)
                -0.0000
    Dipole Moment (Debye)
         X       2.1018      Y       1.3794      Z       3.0122
       Tot       3.9234
    Quadrupole Moments (Debye-Ang)
        XX     -84.9432     XY       6.7219     YY     -78.7875
        XZ      -0.3819     YZ      -1.7342     ZZ     -80.2310

 Total job time:  55.15s(wall), 1924.18s(cpu)
        *  Thank you very much for using Q-Chem.  Have a nice day.  *
