 Q-Chem 5.4, Q-Chem, Inc., Pleasanton, CA (2021)
 Q-Chem 5.4.0 for Intel X86 EM64T Linux

User input:
--------------------------------------------------------------
$molecule
0 1
C	0.221766	-6.741404	-0.129743
C	1.352515	-6.155638	-0.782726
C	-0.717339	-5.791452	0.411926
C	1.593885	-4.803786	-0.921816
H	2.112819	-6.821518	-1.221908
C	-0.464360	-4.378638	0.266682
C	0.688053	-3.838032	-0.398255
C	-1.369108	-3.413062	0.789694
C	0.939002	-2.426473	-0.542349
C	-1.130409	-2.059348	0.652589
C	0.000000	-1.478216	0.000000
H	-1.891446	-1.394783	1.092453
C	-1.967519	-6.187987	1.131595
C	-2.608118	-3.798164	1.504912
N	-2.819813	-5.170003	1.625174
C	2.836188	-4.424987	-1.639129
C	2.189558	-2.036627	-1.263477
N	3.042237	-3.049156	-1.756898
O	-2.307845	-7.353131	1.324787
O	-3.407213	-2.986854	1.967354
O	3.625890	-5.248946	-2.095892
O	2.547850	-0.878829	-1.468685
C	-4.043674	-5.563799	2.330564
H	-4.083407	-6.664085	2.352178
H	-4.925490	-5.147101	1.807263
H	-4.031877	-5.148785	3.356568
C	4.247206	-2.587487	-2.452080
H	4.803187	-3.483329	-2.774302
H	4.860536	-1.964972	-1.773301
H	3.966607	-1.962932	-3.321351
C	0.000000	0.000000	0.000000
S	0.137535	0.781156	1.580530
C	0.421895	2.393994	0.904911
C	0.173134	0.982857	-0.985400
C	0.402294	2.283058	-0.493528
H	0.132237	0.750786	-2.059934
H	0.555196	3.150621	-1.152593
H	0.574741	3.261310	1.556025
H	0.578191	-7.361589	0.701693
H	-0.319578	-7.361192	-0.854838
H	0.539540	-1.478831	0.935572
$end

$rem
JOBTYPE		SP
EXCHANGE	HF
CORRELATION	pRIMP2
BASIS		cc-pvtz
METHOD		rimp2
AUX_BASIS	rimp2-cc-pvtz
SOLVENT_METHOD	PCM
PURECART	11111
SYMMETRY	false
MEM_TOTAL	110000
SCF_CONVERGENCE = 6
THRESH=10
GUI = 2
$end

$solvent
dielectric 4.90
$end
--------------------------------------------------------------

             Standard Nuclear Orientation (Angstroms)
    I     Atom           X                Y                Z
 ----------------------------------------------------------------
    1      C       0.2217660000    -6.7414040000    -0.1297430000
    2      C       1.3525150000    -6.1556380000    -0.7827260000
    3      C      -0.7173390000    -5.7914520000     0.4119260000
    4      C       1.5938850000    -4.8037860000    -0.9218160000
    5      H       2.1128190000    -6.8215180000    -1.2219080000
    6      C      -0.4643600000    -4.3786380000     0.2666820000
    7      C       0.6880530000    -3.8380320000    -0.3982550000
    8      C      -1.3691080000    -3.4130620000     0.7896940000
    9      C       0.9390020000    -2.4264730000    -0.5423490000
   10      C      -1.1304090000    -2.0593480000     0.6525890000
   11      C       0.0000000000    -1.4782160000     0.0000000000
   12      H      -1.8914460000    -1.3947830000     1.0924530000
   13      C      -1.9675190000    -6.1879870000     1.1315950000
   14      C      -2.6081180000    -3.7981640000     1.5049120000
   15      N      -2.8198130000    -5.1700030000     1.6251740000
   16      C       2.8361880000    -4.4249870000    -1.6391290000
   17      C       2.1895580000    -2.0366270000    -1.2634770000
   18      N       3.0422370000    -3.0491560000    -1.7568980000
   19      O      -2.3078450000    -7.3531310000     1.3247870000
   20      O      -3.4072130000    -2.9868540000     1.9673540000
   21      O       3.6258900000    -5.2489460000    -2.0958920000
   22      O       2.5478500000    -0.8788290000    -1.4686850000
   23      C      -4.0436740000    -5.5637990000     2.3305640000
   24      H      -4.0834070000    -6.6640850000     2.3521780000
   25      H      -4.9254900000    -5.1471010000     1.8072630000
   26      H      -4.0318770000    -5.1487850000     3.3565680000
   27      C       4.2472060000    -2.5874870000    -2.4520800000
   28      H       4.8031870000    -3.4833290000    -2.7743020000
   29      H       4.8605360000    -1.9649720000    -1.7733010000
   30      H       3.9666070000    -1.9629320000    -3.3213510000
   31      C       0.0000000000     0.0000000000     0.0000000000
   32      S       0.1375350000     0.7811560000     1.5805300000
   33      C       0.4218950000     2.3939940000     0.9049110000
   34      C       0.1731340000     0.9828570000    -0.9854000000
   35      C       0.4022940000     2.2830580000    -0.4935280000
   36      H       0.1322370000     0.7507860000    -2.0599340000
   37      H       0.5551960000     3.1506210000    -1.1525930000
   38      H       0.5747410000     3.2613100000     1.5560250000
   39      H       0.5781910000    -7.3615890000     0.7016930000
   40      H      -0.3195780000    -7.3611920000    -0.8548380000
   41      H       0.5395400000    -1.4788310000     0.9355720000
 ----------------------------------------------------------------

   11   -1571.7431290791      5.65e-07  Convergence criterion met
 Total energy in the final basis set =    -1571.7431290791
        RIMP2         total energy =     -1576.3980289937 a.u.

                    Orbital Energies (a.u.)
 --------------------------------------------------------------

 Alpha MOs
 -- Occupied --
-91.9926 -20.5509 -20.5444 -20.5417 -20.5404 -15.6267 -15.6212 -11.3929
-11.3851 -11.3835 -11.3790 -11.3085 -11.3083 -11.3049 -11.3046 -11.2965
-11.2931 -11.2892 -11.2822 -11.2691 -11.2681 -11.2647 -11.2629 -11.2593
-11.2527 -11.2515 -11.2502  -8.9924  -6.6732  -6.6727  -6.6721  -1.4190
 -1.4121  -1.3969  -1.3913  -1.2618  -1.2553  -1.2301  -1.1870  -1.1522
 -1.1139  -1.0869  -1.0466  -0.9961  -0.9877  -0.9836  -0.9550  -0.9506
 -0.8961  -0.8873  -0.8767  -0.8601  -0.7935  -0.7756  -0.7713  -0.7678
 -0.7407  -0.7152  -0.7034  -0.6911  -0.6766  -0.6713  -0.6672  -0.6571
 -0.6470  -0.6430  -0.6381  -0.6315  -0.6308  -0.6267  -0.6226  -0.6050
 -0.5854  -0.5743  -0.5655  -0.5608  -0.5566  -0.5512  -0.5498  -0.5477
 -0.5468  -0.5436  -0.5219  -0.5162  -0.5086  -0.4819  -0.4750  -0.4685
 -0.4575  -0.4511  -0.4427  -0.4347  -0.4131  -0.4074  -0.3553  -0.3520
 -0.3282  -0.2865

          Ground-State Mulliken Net Atomic Charges

     Atom                 Charge (a.u.)
  ----------------------------------------
      1 C                    -0.085141
      2 C                    -0.029511
      3 C                    -0.111429
      4 C                    -0.124356
      5 H                     0.198749
      6 C                     0.013366
      7 C                     0.123838
      8 C                    -0.073868
      9 C                    -0.147477
     10 C                    -0.171429
     11 C                     0.246713
     12 H                     0.195238
     13 C                     0.343972
     14 C                     0.349762
     15 N                    -0.089810
     16 C                     0.357388
     17 C                     0.352177
     18 N                    -0.089105
     19 O                    -0.494307
     20 O                    -0.507019
     21 O                    -0.501781
     22 O                    -0.469157
     23 C                    -0.204717
     24 H                     0.139392
     25 H                     0.109191
     26 H                     0.109171
     27 C                    -0.197335
     28 H                     0.133353
     29 H                     0.111616
     30 H                     0.110995
     31 C                    -0.091423
     32 S                     0.010011
     33 C                    -0.215589
     34 C                    -0.149050
     35 C                    -0.206802
     36 H                     0.183899
     37 H                     0.190506
     38 H                     0.212696
     39 H                     0.137505
     40 H                     0.137849
     41 H                     0.191920
  ----------------------------------------
  Sum of atomic charges =     0.000000

                    Cartesian Multipole Moments
 -----------------------------------------------------------------
    Charge (ESU x 10^10)
                 0.0000
    Dipole Moment (Debye)
         X       1.5806      Y       2.3002      Z      -0.8805
       Tot       2.9265
    Quadrupole Moments (Debye-Ang)
        XX    -187.2977     XY      -6.2044     YY    -177.7675
        XZ      14.5884     YZ       3.9027     ZZ    -164.6554

 Total job time:  314.35s(wall), 8633.00s(cpu)
        *  Thank you very much for using Q-Chem.  Have a nice day.  *
