 Q-Chem 5.4, Q-Chem, Inc., Pleasanton, CA (2021)
 Q-Chem 5.4.0 for Intel X86 EM64T Linux

User input:
--------------------------------------------------------------
$molecule
0 1
C	0.253280	-6.741404	0.043160
C	1.539213	-6.155638	0.269777
C	-0.814295	-5.791452	-0.145543
C	1.813519	-4.803786	0.318377
H	2.403941	-6.821518	0.422058
C	-0.527140	-4.378638	-0.094194
C	0.783072	-3.838032	0.137191
C	-1.556403	-3.413062	-0.275104
C	1.067932	-2.426473	0.188116
C	-1.285420	-2.059348	-0.226701
C	0.000000	-1.478216	0.000000
H	-2.151147	-1.394783	-0.378931
C	-2.234582	-6.187987	-0.397845
C	-2.965273	-3.798164	-0.523637
N	-3.204744	-5.170003	-0.567586
C	3.226257	-4.424987	0.567421
C	2.489446	-2.036627	0.439541
N	3.459801	-3.049156	0.609650
O	-2.619468	-7.353131	-0.468608
O	-3.874668	-2.986854	-0.683034
O	4.124806	-5.248946	0.725131
O	2.895819	-0.878829	0.512648
C	-4.595691	-5.563799	-0.813908
H	-4.640022	-6.664085	-0.822891
H	-4.934830	-5.147101	-1.781600
H	-5.246157	-5.148785	-0.020360
C	4.829716	-2.587487	0.851649
H	5.462742	-3.483329	0.962191
H	4.863242	-1.964972	1.765865
H	5.173521	-1.962932	0.005383
C	0.000000	0.000000	0.000000
S	0.068929	0.790170	1.580530
C	0.211639	2.421655	0.904911
C	0.086813	0.994207	-0.985400
C	0.201782	2.309433	-0.493528
H	0.066299	0.759454	-2.059934
H	0.278488	3.187020	-1.152593
H	0.288312	3.298992	1.556025
H	-0.008120	-7.361589	0.909181
H	0.304668	-7.361192	-0.860264
H	-0.188062	-1.478831	1.063500
$end

$rem
JOBTYPE		SP
EXCHANGE	HF
CORRELATION	pRIMP2
BASIS		cc-pvtz
METHOD		rimp2
AUX_BASIS	rimp2-cc-pvtz
SOLVENT_METHOD	PCM
PURECART	11111
SYMMETRY	false
MEM_TOTAL	110000
SCF_CONVERGENCE = 6
THRESH=10
GUI = 2
$end

$solvent
dielectric 4.90
$end
--------------------------------------------------------------

             Standard Nuclear Orientation (Angstroms)
    I     Atom           X                Y                Z
 ----------------------------------------------------------------
    1      C       0.2532800000    -6.7414040000     0.0431600000
    2      C       1.5392130000    -6.1556380000     0.2697770000
    3      C      -0.8142950000    -5.7914520000    -0.1455430000
    4      C       1.8135190000    -4.8037860000     0.3183770000
    5      H       2.4039410000    -6.8215180000     0.4220580000
    6      C      -0.5271400000    -4.3786380000    -0.0941940000
    7      C       0.7830720000    -3.8380320000     0.1371910000
    8      C      -1.5564030000    -3.4130620000    -0.2751040000
    9      C       1.0679320000    -2.4264730000     0.1881160000
   10      C      -1.2854200000    -2.0593480000    -0.2267010000
   11      C       0.0000000000    -1.4782160000     0.0000000000
   12      H      -2.1511470000    -1.3947830000    -0.3789310000
   13      C      -2.2345820000    -6.1879870000    -0.3978450000
   14      C      -2.9652730000    -3.7981640000    -0.5236370000
   15      N      -3.2047440000    -5.1700030000    -0.5675860000
   16      C       3.2262570000    -4.4249870000     0.5674210000
   17      C       2.4894460000    -2.0366270000     0.4395410000
   18      N       3.4598010000    -3.0491560000     0.6096500000
   19      O      -2.6194680000    -7.3531310000    -0.4686080000
   20      O      -3.8746680000    -2.9868540000    -0.6830340000
   21      O       4.1248060000    -5.2489460000     0.7251310000
   22      O       2.8958190000    -0.8788290000     0.5126480000
   23      C      -4.5956910000    -5.5637990000    -0.8139080000
   24      H      -4.6400220000    -6.6640850000    -0.8228910000
   25      H      -4.9348300000    -5.1471010000    -1.7816000000
   26      H      -5.2461570000    -5.1487850000    -0.0203600000
   27      C       4.8297160000    -2.5874870000     0.8516490000
   28      H       5.4627420000    -3.4833290000     0.9621910000
   29      H       4.8632420000    -1.9649720000     1.7658650000
   30      H       5.1735210000    -1.9629320000     0.0053830000
   31      C       0.0000000000     0.0000000000     0.0000000000
   32      S       0.0689290000     0.7901700000     1.5805300000
   33      C       0.2116390000     2.4216550000     0.9049110000
   34      C       0.0868130000     0.9942070000    -0.9854000000
   35      C       0.2017820000     2.3094330000    -0.4935280000
   36      H       0.0662990000     0.7594540000    -2.0599340000
   37      H       0.2784880000     3.1870200000    -1.1525930000
   38      H       0.2883120000     3.2989920000     1.5560250000
   39      H      -0.0081200000    -7.3615890000     0.9091810000
   40      H       0.3046680000    -7.3611920000    -0.8602640000
   41      H      -0.1880620000    -1.4788310000     1.0635000000
 ----------------------------------------------------------------

   11   -1571.7455082735      5.59e-07  Convergence criterion met
 Total energy in the final basis set =    -1571.7455082735
        RIMP2         total energy =     -1576.3998108740 a.u.

                    Orbital Energies (a.u.)
 --------------------------------------------------------------

 Alpha MOs
 -- Occupied --
-91.9917 -20.5513 -20.5442 -20.5420 -20.5407 -15.6264 -15.6214 -11.3927
-11.3849 -11.3839 -11.3793 -11.3085 -11.3084 -11.3049 -11.3047 -11.2964
-11.2941 -11.2892 -11.2826 -11.2696 -11.2680 -11.2646 -11.2625 -11.2595
-11.2534 -11.2528 -11.2506  -8.9913  -6.6721  -6.6717  -6.6710  -1.4188
 -1.4124  -1.3967  -1.3916  -1.2617  -1.2555  -1.2298  -1.1866  -1.1525
 -1.1141  -1.0867  -1.0465  -0.9958  -0.9877  -0.9843  -0.9549  -0.9512
 -0.8960  -0.8872  -0.8766  -0.8600  -0.7932  -0.7761  -0.7739  -0.7682
 -0.7373  -0.7169  -0.7042  -0.6913  -0.6777  -0.6702  -0.6675  -0.6571
 -0.6469  -0.6403  -0.6381  -0.6322  -0.6309  -0.6270  -0.6227  -0.6051
 -0.5845  -0.5751  -0.5666  -0.5612  -0.5571  -0.5511  -0.5503  -0.5480
 -0.5455  -0.5435  -0.5193  -0.5176  -0.5089  -0.4808  -0.4744  -0.4685
 -0.4571  -0.4507  -0.4428  -0.4347  -0.4131  -0.4075  -0.3554  -0.3512
 -0.3276  -0.2911

          Ground-State Mulliken Net Atomic Charges

     Atom                 Charge (a.u.)
  ----------------------------------------
      1 C                    -0.084563
      2 C                    -0.030690
      3 C                    -0.109883
      4 C                    -0.121909
      5 H                     0.198598
      6 C                     0.010335
      7 C                     0.121999
      8 C                    -0.089690
      9 C                    -0.180446
     10 C                    -0.126849
     11 C                     0.247827
     12 H                     0.191160
     13 C                     0.343580
     14 C                     0.351809
     15 N                    -0.090433
     16 C                     0.357184
     17 C                     0.358034
     18 N                    -0.091637
     19 O                    -0.493737
     20 O                    -0.507158
     21 O                    -0.501808
     22 O                    -0.471299
     23 C                    -0.204701
     24 H                     0.139499
     25 H                     0.109100
     26 H                     0.109217
     27 C                    -0.197201
     28 H                     0.132996
     29 H                     0.111591
     30 H                     0.111617
     31 C                    -0.071849
     32 S                     0.014046
     33 C                    -0.214446
     34 C                    -0.172014
     35 C                    -0.202741
     36 H                     0.189164
     37 H                     0.191242
     38 H                     0.212417
     39 H                     0.137721
     40 H                     0.137796
     41 H                     0.186123
  ----------------------------------------
  Sum of atomic charges =     0.000000

                    Cartesian Multipole Moments
 -----------------------------------------------------------------
    Charge (ESU x 10^10)
                 0.0000
    Dipole Moment (Debye)
         X       0.9414      Y       2.3052      Z      -0.0656
       Tot       2.4908
    Quadrupole Moments (Debye-Ang)
        XX    -194.9603     XY      -7.1832     YY    -177.1787
        XZ      -5.4606     YZ      -1.9554     ZZ    -157.1297

 Total job time:  308.75s(wall), 8892.18s(cpu)
        *  Thank you very much for using Q-Chem.  Have a nice day.  *
