 Q-Chem 5.4, Q-Chem, Inc., Pleasanton, CA (2021)
 Q-Chem 5.4.0 for Intel X86 EM64T Linux

User input:
--------------------------------------------------------------
$molecule
0 1
C	-0.127184	-6.741404	0.223244
C	-0.779949	-6.155638	1.354118
C	0.415271	-5.791452	-0.715408
C	-0.919437	-4.803786	1.595259
H	-1.218801	-6.821518	2.114613
C	0.268806	-4.378638	-0.463133
C	-0.396744	-3.838032	0.688925
C	0.790835	-3.413062	-1.368449
C	-0.542026	-2.426473	0.939189
C	0.652669	-2.059348	-1.130363
C	0.000000	-1.478216	0.000000
H	1.091814	-1.394783	-1.891815
C	1.138124	-6.187987	-1.963749
C	1.506241	-3.798164	-2.607351
N	1.629443	-5.170003	-2.817348
C	-1.636646	-4.424987	2.837621
C	-1.264474	-2.036627	2.188982
N	-1.756205	-3.049156	3.042637
O	1.336258	-7.353131	-2.301222
O	1.967056	-2.986854	-3.407386
O	-2.092167	-5.248946	3.628041
O	-1.472160	-0.878829	2.545844
C	2.336642	-5.563799	-4.040164
H	2.360245	-6.664085	-4.078749
H	3.361968	-5.147101	-4.027880
H	1.813424	-5.148785	-4.922811
C	-2.452149	-2.587487	4.247167
H	-2.772531	-3.483329	4.804209
H	-3.322697	-1.964972	3.965991
H	-1.774507	-1.962932	4.859678
C	0.000000	0.000000	0.000000
S	0.205093	0.766196	1.580530
C	0.628939	2.348114	0.904911
C	0.258137	0.964028	-0.985400
C	0.599745	2.239309	-0.493528
H	0.197169	0.736404	-2.059934
H	0.827678	3.090243	-1.152593
H	0.856796	3.198808	1.556025
H	-0.851574	-7.361589	-0.318588
H	0.704181	-7.361192	0.580522
H	-0.935042	-1.478831	-0.540459
$end

$rem
JOBTYPE		SP
EXCHANGE	HF
CORRELATION	pRIMP2
BASIS		cc-pvtz
METHOD		rimp2
AUX_BASIS	rimp2-cc-pvtz
SOLVENT_METHOD	PCM
PURECART	11111
SYMMETRY	false
MEM_TOTAL	110000
SCF_CONVERGENCE = 6
THRESH=10
GUI = 2
$end

$solvent
dielectric 4.90
$end
--------------------------------------------------------------

             Standard Nuclear Orientation (Angstroms)
    I     Atom           X                Y                Z
 ----------------------------------------------------------------
    1      C      -0.1271840000    -6.7414040000     0.2232440000
    2      C      -0.7799490000    -6.1556380000     1.3541180000
    3      C       0.4152710000    -5.7914520000    -0.7154080000
    4      C      -0.9194370000    -4.8037860000     1.5952590000
    5      H      -1.2188010000    -6.8215180000     2.1146130000
    6      C       0.2688060000    -4.3786380000    -0.4631330000
    7      C      -0.3967440000    -3.8380320000     0.6889250000
    8      C       0.7908350000    -3.4130620000    -1.3684490000
    9      C      -0.5420260000    -2.4264730000     0.9391890000
   10      C       0.6526690000    -2.0593480000    -1.1303630000
   11      C       0.0000000000    -1.4782160000     0.0000000000
   12      H       1.0918140000    -1.3947830000    -1.8918150000
   13      C       1.1381240000    -6.1879870000    -1.9637490000
   14      C       1.5062410000    -3.7981640000    -2.6073510000
   15      N       1.6294430000    -5.1700030000    -2.8173480000
   16      C      -1.6366460000    -4.4249870000     2.8376210000
   17      C      -1.2644740000    -2.0366270000     2.1889820000
   18      N      -1.7562050000    -3.0491560000     3.0426370000
   19      O       1.3362580000    -7.3531310000    -2.3012220000
   20      O       1.9670560000    -2.9868540000    -3.4073860000
   21      O      -2.0921670000    -5.2489460000     3.6280410000
   22      O      -1.4721600000    -0.8788290000     2.5458440000
   23      C       2.3366420000    -5.5637990000    -4.0401640000
   24      H       2.3602450000    -6.6640850000    -4.0787490000
   25      H       3.3619680000    -5.1471010000    -4.0278800000
   26      H       1.8134240000    -5.1487850000    -4.9228110000
   27      C      -2.4521490000    -2.5874870000     4.2471670000
   28      H      -2.7725310000    -3.4833290000     4.8042090000
   29      H      -3.3226970000    -1.9649720000     3.9659910000
   30      H      -1.7745070000    -1.9629320000     4.8596780000
   31      C       0.0000000000     0.0000000000     0.0000000000
   32      S       0.2050930000     0.7661960000     1.5805300000
   33      C       0.6289390000     2.3481140000     0.9049110000
   34      C       0.2581370000     0.9640280000    -0.9854000000
   35      C       0.5997450000     2.2393090000    -0.4935280000
   36      H       0.1971690000     0.7364040000    -2.0599340000
   37      H       0.8276780000     3.0902430000    -1.1525930000
   38      H       0.8567960000     3.1988080000     1.5560250000
   39      H      -0.8515740000    -7.3615890000    -0.3185880000
   40      H       0.7041810000    -7.3611920000     0.5805220000
   41      H      -0.9350420000    -1.4788310000    -0.5404590000
 ----------------------------------------------------------------

   11   -1571.7271902996      5.87e-07  Convergence criterion met
 Total energy in the final basis set =    -1571.7271902996
        RIMP2         total energy =     -1576.3896276186 a.u.

                    Orbital Energies (a.u.)
 --------------------------------------------------------------

 Alpha MOs
 -- Occupied --
-91.9782 -20.5532 -20.5454 -20.5421 -20.5411 -15.6284 -15.6219 -11.3960
-11.3861 -11.3840 -11.3798 -11.3111 -11.3096 -11.3074 -11.3054 -11.2981
-11.2958 -11.2911 -11.2699 -11.2699 -11.2693 -11.2655 -11.2636 -11.2598
-11.2535 -11.2513 -11.2437  -8.9780  -6.6586  -6.6578  -6.6573  -1.4236
 -1.4127  -1.3997  -1.3919  -1.2641  -1.2561  -1.2310  -1.1859  -1.1492
 -1.1152  -1.0868  -1.0482  -0.9943  -0.9887  -0.9788  -0.9557  -0.9494
 -0.8971  -0.8897  -0.8783  -0.8614  -0.7928  -0.7788  -0.7729  -0.7600
 -0.7348  -0.7185  -0.7025  -0.6913  -0.6832  -0.6754  -0.6677  -0.6581
 -0.6487  -0.6465  -0.6371  -0.6330  -0.6316  -0.6305  -0.6216  -0.6056
 -0.5870  -0.5740  -0.5640  -0.5621  -0.5593  -0.5526  -0.5517  -0.5488
 -0.5482  -0.5447  -0.5208  -0.5124  -0.5110  -0.4841  -0.4765  -0.4614
 -0.4557  -0.4450  -0.4383  -0.4322  -0.4120  -0.4080  -0.3547  -0.3422
 -0.3286  -0.2798

          Ground-State Mulliken Net Atomic Charges

     Atom                 Charge (a.u.)
  ----------------------------------------
      1 C                    -0.084400
      2 C                    -0.029563
      3 C                    -0.108402
      4 C                    -0.125274
      5 H                     0.199700
      6 C                     0.026044
      7 C                     0.126763
      8 C                    -0.093191
      9 C                    -0.169474
     10 C                    -0.159003
     11 C                     0.219985
     12 H                     0.192291
     13 C                     0.341537
     14 C                     0.349418
     15 N                    -0.090026
     16 C                     0.357412
     17 C                     0.368207
     18 N                    -0.091076
     19 O                    -0.494270
     20 O                    -0.508069
     21 O                    -0.500699
     22 O                    -0.473111
     23 C                    -0.204842
     24 H                     0.139626
     25 H                     0.109492
     26 H                     0.109029
     27 C                    -0.197542
     28 H                     0.133954
     29 H                     0.111814
     30 H                     0.112480
     31 C                    -0.028588
     32 S                     0.068358
     33 C                    -0.240683
     34 C                    -0.224175
     35 C                    -0.208270
     36 H                     0.182123
     37 H                     0.186810
     38 H                     0.206367
     39 H                     0.138039
     40 H                     0.138564
     41 H                     0.212646
  ----------------------------------------
  Sum of atomic charges =     0.000000

                    Cartesian Multipole Moments
 -----------------------------------------------------------------
    Charge (ESU x 10^10)
                 0.0000
    Dipole Moment (Debye)
         X      -1.1883      Y       1.2357      Z      -0.0329
       Tot       1.7147
    Quadrupole Moments (Debye-Ang)
        XX    -170.0158     XY       8.1698     YY    -178.4020
        XZ      13.8320     YZ      -6.7928     ZZ    -180.2535

 Total job time:  299.46s(wall), 9061.36s(cpu)
        *  Thank you very much for using Q-Chem.  Have a nice day.  *
