 Q-Chem 5.4, Q-Chem, Inc., Pleasanton, CA (2021)
 Q-Chem 5.4.0 for Intel X86 EM64T Linux

User input:
--------------------------------------------------------------
$molecule
0 1
C	-0.252767	-6.741404	0.046070
C	-1.538656	-6.155638	0.272935
C	0.814966	-5.791452	-0.141739
C	-1.813042	-4.803786	0.321083
H	-2.403318	-6.821518	0.425592
C	0.527566	-4.378638	-0.091779
C	-0.782769	-3.838032	0.138909
C	1.556632	-3.413062	-0.273808
C	-1.067868	-2.426473	0.188483
C	1.285436	-2.059348	-0.226610
C	-0.000000	-1.478216	-0.000000
H	2.151019	-1.394783	-0.379657
C	2.235891	-6.187987	-0.390420
C	2.965540	-3.798164	-0.522125
N	3.205600	-5.170003	-0.562731
C	-3.225760	-4.424987	0.570244
C	-2.489646	-2.036627	0.438407
N	-3.459662	-3.049156	0.610438
O	2.621768	-7.353131	-0.455563
O	3.874608	-2.986854	-0.683373
O	-4.124059	-5.248946	0.729367
O	-2.896516	-0.878829	0.508697
C	4.596910	-5.563799	-0.806996
H	4.641640	-6.664085	-0.813717
H	5.246567	-5.147101	-0.013655
H	4.936739	-5.148785	-1.775159
C	-4.829729	-2.587487	0.851572
H	-5.462387	-3.483329	0.964204
H	-5.173914	-1.964972	0.003956
H	-4.863360	-1.962932	1.764390
C	0.000000	0.000000	0.000000
S	0.686805	0.396760	1.580530
C	2.105095	1.215640	0.904911
C	0.864201	0.499140	-0.985400
C	2.007514	1.159347	-0.493528
H	0.660136	0.381296	-2.059934
H	2.770388	1.599875	-1.152593
H	2.867745	1.656053	1.556025
H	-0.303328	-7.361589	-0.857128
H	0.007933	-7.361192	0.912587
H	-0.187017	-1.478831	-1.063684
$end

$rem
JOBTYPE		SP
EXCHANGE	HF
CORRELATION	pRIMP2
BASIS		cc-pvtz
METHOD		rimp2
AUX_BASIS	rimp2-cc-pvtz
SOLVENT_METHOD	PCM
PURECART	11111
SYMMETRY	false
MEM_TOTAL	110000
SCF_CONVERGENCE = 6
THRESH=10
GUI = 2
$end

$solvent
dielectric 4.90
$end
--------------------------------------------------------------

             Standard Nuclear Orientation (Angstroms)
    I     Atom           X                Y                Z
 ----------------------------------------------------------------
    1      C      -0.2527670000    -6.7414040000     0.0460700000
    2      C      -1.5386560000    -6.1556380000     0.2729350000
    3      C       0.8149660000    -5.7914520000    -0.1417390000
    4      C      -1.8130420000    -4.8037860000     0.3210830000
    5      H      -2.4033180000    -6.8215180000     0.4255920000
    6      C       0.5275660000    -4.3786380000    -0.0917790000
    7      C      -0.7827690000    -3.8380320000     0.1389090000
    8      C       1.5566320000    -3.4130620000    -0.2738080000
    9      C      -1.0678680000    -2.4264730000     0.1884830000
   10      C       1.2854360000    -2.0593480000    -0.2266100000
   11      C       0.0000000000    -1.4782160000     0.0000000000
   12      H       2.1510190000    -1.3947830000    -0.3796570000
   13      C       2.2358910000    -6.1879870000    -0.3904200000
   14      C       2.9655400000    -3.7981640000    -0.5221250000
   15      N       3.2056000000    -5.1700030000    -0.5627310000
   16      C      -3.2257600000    -4.4249870000     0.5702440000
   17      C      -2.4896460000    -2.0366270000     0.4384070000
   18      N      -3.4596620000    -3.0491560000     0.6104380000
   19      O       2.6217680000    -7.3531310000    -0.4555630000
   20      O       3.8746080000    -2.9868540000    -0.6833730000
   21      O      -4.1240590000    -5.2489460000     0.7293670000
   22      O      -2.8965160000    -0.8788290000     0.5086970000
   23      C       4.5969100000    -5.5637990000    -0.8069960000
   24      H       4.6416400000    -6.6640850000    -0.8137170000
   25      H       5.2465670000    -5.1471010000    -0.0136550000
   26      H       4.9367390000    -5.1487850000    -1.7751590000
   27      C      -4.8297290000    -2.5874870000     0.8515720000
   28      H      -5.4623870000    -3.4833290000     0.9642040000
   29      H      -5.1739140000    -1.9649720000     0.0039560000
   30      H      -4.8633600000    -1.9629320000     1.7643900000
   31      C       0.0000000000     0.0000000000     0.0000000000
   32      S       0.6868050000     0.3967600000     1.5805300000
   33      C       2.1050950000     1.2156400000     0.9049110000
   34      C       0.8642010000     0.4991400000    -0.9854000000
   35      C       2.0075140000     1.1593470000    -0.4935280000
   36      H       0.6601360000     0.3812960000    -2.0599340000
   37      H       2.7703880000     1.5998750000    -1.1525930000
   38      H       2.8677450000     1.6560530000     1.5560250000
   39      H      -0.3033280000    -7.3615890000    -0.8571280000
   40      H       0.0079330000    -7.3611920000     0.9125870000
   41      H      -0.1870170000    -1.4788310000    -1.0636840000
 ----------------------------------------------------------------

   11   -1571.6854346893      5.71e-07  Convergence criterion met
 Total energy in the final basis set =    -1571.6854346893
        RIMP2         total energy =     -1576.3558380924 a.u.

                    Orbital Energies (a.u.)
 --------------------------------------------------------------

 Alpha MOs
 -- Occupied --
-91.9912 -20.5508 -20.5429 -20.5397 -20.5394 -15.6252 -15.6198 -11.3911
-11.3833 -11.3815 -11.3777 -11.3070 -11.3033 -11.3027 -11.3018 -11.2997
-11.2928 -11.2833 -11.2754 -11.2733 -11.2654 -11.2651 -11.2617 -11.2613
-11.2588 -11.2573 -11.2502  -8.9917  -6.6724  -6.6716  -6.6713  -1.4176
 -1.4108  -1.3955  -1.3899  -1.2603  -1.2540  -1.2328  -1.1949  -1.1517
 -1.1112  -1.0831  -1.0436  -1.0015  -0.9957  -0.9860  -0.9540  -0.9480
 -0.8945  -0.8845  -0.8736  -0.8561  -0.7953  -0.7776  -0.7695  -0.7673
 -0.7435  -0.7166  -0.7036  -0.6900  -0.6831  -0.6702  -0.6652  -0.6558
 -0.6450  -0.6426  -0.6374  -0.6322  -0.6289  -0.6252  -0.6198  -0.6040
 -0.5837  -0.5819  -0.5702  -0.5600  -0.5556  -0.5504  -0.5497  -0.5468
 -0.5457  -0.5422  -0.5246  -0.5066  -0.4961  -0.4828  -0.4737  -0.4584
 -0.4570  -0.4496  -0.4412  -0.4322  -0.4119  -0.4060  -0.3636  -0.3456
 -0.3351  -0.2853

          Ground-State Mulliken Net Atomic Charges

     Atom                 Charge (a.u.)
  ----------------------------------------
      1 C                    -0.086728
      2 C                    -0.036015
      3 C                    -0.111497
      4 C                    -0.119390
      5 H                     0.197154
      6 C                     0.014504
      7 C                     0.119023
      8 C                    -0.094008
      9 C                    -0.215341
     10 C                    -0.163112
     11 C                     0.240137
     12 H                     0.199946
     13 C                     0.342662
     14 C                     0.338676
     15 N                    -0.088881
     16 C                     0.354759
     17 C                     0.354861
     18 N                    -0.090904
     19 O                    -0.497269
     20 O                    -0.511505
     21 O                    -0.502802
     22 O                    -0.466766
     23 C                    -0.205648
     24 H                     0.139473
     25 H                     0.108646
     26 H                     0.108193
     27 C                    -0.198555
     28 H                     0.132732
     29 H                     0.111076
     30 H                     0.111574
     31 C                    -0.109348
     32 S                     0.028176
     33 C                    -0.132434
     34 C                    -0.097606
     35 C                    -0.242631
     36 H                     0.197038
     37 H                     0.196701
     38 H                     0.216564
     39 H                     0.135368
     40 H                     0.135690
     41 H                     0.187486
  ----------------------------------------
  Sum of atomic charges =     0.000000

                    Cartesian Multipole Moments
 -----------------------------------------------------------------
    Charge (ESU x 10^10)
                 0.0000
    Dipole Moment (Debye)
         X       1.6725      Y       2.8978      Z      -1.5387
       Tot       3.6827
    Quadrupole Moments (Debye-Ang)
        XX    -186.2253     XY      15.0847     YY    -190.7880
        XZ       6.9476     YZ       0.2044     ZZ    -156.4571

 Total job time:  303.50s(wall), 9029.01s(cpu)
        *  Thank you very much for using Q-Chem.  Have a nice day.  *
