 Q-Chem 5.4, Q-Chem, Inc., Pleasanton, CA (2021)
 Q-Chem 5.4.0 for Intel X86 EM64T Linux

User input:
--------------------------------------------------------------
$molecule
0 1
C	-0.252767	-6.741404	0.046070
C	-1.538656	-6.155638	0.272935
C	0.814966	-5.791452	-0.141739
C	-1.813042	-4.803786	0.321083
H	-2.403318	-6.821518	0.425592
C	0.527566	-4.378638	-0.091779
C	-0.782769	-3.838032	0.138909
C	1.556632	-3.413062	-0.273808
C	-1.067868	-2.426473	0.188483
C	1.285436	-2.059348	-0.226610
C	-0.000000	-1.478216	-0.000000
H	2.151019	-1.394783	-0.379657
C	2.235891	-6.187987	-0.390420
C	2.965540	-3.798164	-0.522125
N	3.205600	-5.170003	-0.562731
C	-3.225760	-4.424987	0.570244
C	-2.489646	-2.036627	0.438407
N	-3.459662	-3.049156	0.610438
O	2.621768	-7.353131	-0.455563
O	3.874608	-2.986854	-0.683373
O	-4.124059	-5.248946	0.729367
O	-2.896516	-0.878829	0.508697
C	4.596910	-5.563799	-0.806996
H	4.641640	-6.664085	-0.813717
H	5.246567	-5.147101	-0.013655
H	4.936739	-5.148785	-1.775159
C	-4.829729	-2.587487	0.851572
H	-5.462387	-3.483329	0.964204
H	-5.173914	-1.964972	0.003956
H	-4.863360	-1.962932	1.764390
C	0.000000	0.000000	0.000000
S	0.335026	0.718942	1.580530
C	1.027130	2.203226	0.904911
C	0.421617	0.904557	-0.985400
C	0.979485	2.101144	-0.493528
H	0.322049	0.690978	-2.059934
H	1.351718	2.899571	-1.152593
H	1.399246	3.001430	1.556025
H	-0.303328	-7.361589	-0.857128
H	0.007933	-7.361192	0.912587
H	-0.187017	-1.478831	-1.063684
$end

$rem
JOBTYPE		SP
EXCHANGE	HF
CORRELATION	pRIMP2
BASIS		cc-pvtz
METHOD		rimp2
AUX_BASIS	rimp2-cc-pvtz
SOLVENT_METHOD	PCM
PURECART	11111
SYMMETRY	false
MEM_TOTAL	110000
SCF_CONVERGENCE = 6
THRESH=10
GUI = 2
$end

$solvent
dielectric 4.90
$end
--------------------------------------------------------------

             Standard Nuclear Orientation (Angstroms)
    I     Atom           X                Y                Z
 ----------------------------------------------------------------
    1      C      -0.2527670000    -6.7414040000     0.0460700000
    2      C      -1.5386560000    -6.1556380000     0.2729350000
    3      C       0.8149660000    -5.7914520000    -0.1417390000
    4      C      -1.8130420000    -4.8037860000     0.3210830000
    5      H      -2.4033180000    -6.8215180000     0.4255920000
    6      C       0.5275660000    -4.3786380000    -0.0917790000
    7      C      -0.7827690000    -3.8380320000     0.1389090000
    8      C       1.5566320000    -3.4130620000    -0.2738080000
    9      C      -1.0678680000    -2.4264730000     0.1884830000
   10      C       1.2854360000    -2.0593480000    -0.2266100000
   11      C       0.0000000000    -1.4782160000     0.0000000000
   12      H       2.1510190000    -1.3947830000    -0.3796570000
   13      C       2.2358910000    -6.1879870000    -0.3904200000
   14      C       2.9655400000    -3.7981640000    -0.5221250000
   15      N       3.2056000000    -5.1700030000    -0.5627310000
   16      C      -3.2257600000    -4.4249870000     0.5702440000
   17      C      -2.4896460000    -2.0366270000     0.4384070000
   18      N      -3.4596620000    -3.0491560000     0.6104380000
   19      O       2.6217680000    -7.3531310000    -0.4555630000
   20      O       3.8746080000    -2.9868540000    -0.6833730000
   21      O      -4.1240590000    -5.2489460000     0.7293670000
   22      O      -2.8965160000    -0.8788290000     0.5086970000
   23      C       4.5969100000    -5.5637990000    -0.8069960000
   24      H       4.6416400000    -6.6640850000    -0.8137170000
   25      H       5.2465670000    -5.1471010000    -0.0136550000
   26      H       4.9367390000    -5.1487850000    -1.7751590000
   27      C      -4.8297290000    -2.5874870000     0.8515720000
   28      H      -5.4623870000    -3.4833290000     0.9642040000
   29      H      -5.1739140000    -1.9649720000     0.0039560000
   30      H      -4.8633600000    -1.9629320000     1.7643900000
   31      C       0.0000000000     0.0000000000     0.0000000000
   32      S       0.3350260000     0.7189420000     1.5805300000
   33      C       1.0271300000     2.2032260000     0.9049110000
   34      C       0.4216170000     0.9045570000    -0.9854000000
   35      C       0.9794850000     2.1011440000    -0.4935280000
   36      H       0.3220490000     0.6909780000    -2.0599340000
   37      H       1.3517180000     2.8995710000    -1.1525930000
   38      H       1.3992460000     3.0014300000     1.5560250000
   39      H      -0.3033280000    -7.3615890000    -0.8571280000
   40      H       0.0079330000    -7.3611920000     0.9125870000
   41      H      -0.1870170000    -1.4788310000    -1.0636840000
 ----------------------------------------------------------------

   11   -1571.7417039312      5.42e-07  Convergence criterion met
 Total energy in the final basis set =    -1571.7417039312
        RIMP2         total energy =     -1576.3978425060 a.u.

                    Orbital Energies (a.u.)
 --------------------------------------------------------------

 Alpha MOs
 -- Occupied --
-91.9874 -20.5526 -20.5443 -20.5417 -20.5407 -15.6268 -15.6213 -11.3933
-11.3849 -11.3836 -11.3793 -11.3090 -11.3077 -11.3046 -11.3042 -11.2961
-11.2954 -11.2891 -11.2847 -11.2690 -11.2678 -11.2647 -11.2626 -11.2603
-11.2595 -11.2526 -11.2520  -8.9873  -6.6681  -6.6675  -6.6670  -1.4194
 -1.4123  -1.3971  -1.3914  -1.2619  -1.2555  -1.2299  -1.1876  -1.1529
 -1.1140  -1.0861  -1.0464  -0.9963  -0.9877  -0.9860  -0.9551  -0.9507
 -0.8965  -0.8875  -0.8762  -0.8594  -0.7947  -0.7769  -0.7707  -0.7635
 -0.7424  -0.7172  -0.7045  -0.6916  -0.6813  -0.6720  -0.6665  -0.6572
 -0.6469  -0.6438  -0.6359  -0.6332  -0.6308  -0.6275  -0.6216  -0.6047
 -0.5842  -0.5760  -0.5689  -0.5614  -0.5572  -0.5512  -0.5506  -0.5479
 -0.5465  -0.5435  -0.5220  -0.5140  -0.5075  -0.4821  -0.4752  -0.4618
 -0.4580  -0.4512  -0.4428  -0.4345  -0.4133  -0.4074  -0.3575  -0.3501
 -0.3290  -0.2896

          Ground-State Mulliken Net Atomic Charges

     Atom                 Charge (a.u.)
  ----------------------------------------
      1 C                    -0.084541
      2 C                    -0.032260
      3 C                    -0.111277
      4 C                    -0.119863
      5 H                     0.198623
      6 C                     0.020314
      7 C                     0.119304
      8 C                    -0.095381
      9 C                    -0.174695
     10 C                    -0.092665
     11 C                     0.134559
     12 H                     0.199832
     13 C                     0.343732
     14 C                     0.344439
     15 N                    -0.089948
     16 C                     0.356593
     17 C                     0.345072
     18 N                    -0.092796
     19 O                    -0.494338
     20 O                    -0.507257
     21 O                    -0.501517
     22 O                    -0.470957
     23 C                    -0.204883
     24 H                     0.139548
     25 H                     0.109363
     26 H                     0.108804
     27 C                    -0.197098
     28 H                     0.133039
     29 H                     0.111312
     30 H                     0.112078
     31 C                     0.041320
     32 S                     0.012771
     33 C                    -0.206980
     34 C                    -0.231283
     35 C                    -0.189626
     36 H                     0.187484
     37 H                     0.193543
     38 H                     0.211039
     39 H                     0.137321
     40 H                     0.137686
     41 H                     0.199588
  ----------------------------------------
  Sum of atomic charges =     0.000000

                    Cartesian Multipole Moments
 -----------------------------------------------------------------
    Charge (ESU x 10^10)
                 0.0000
    Dipole Moment (Debye)
         X      -0.1095      Y       2.2325      Z      -1.6840
       Tot       2.7985
    Quadrupole Moments (Debye-Ang)
        XX    -193.0021     XY      13.2146     YY    -179.6324
        XZ       6.0225     YZ       0.3753     ZZ    -157.2651

 Total job time:  300.16s(wall), 9133.80s(cpu)
        *  Thank you very much for using Q-Chem.  Have a nice day.  *
