 Q-Chem 5.4, Q-Chem, Inc., Pleasanton, CA (2021)
 Q-Chem 5.4.0 for Intel X86 EM64T Linux

User input:
--------------------------------------------------------------
$molecule
0 1
C	0.253280	-6.741404	0.043160
C	1.539213	-6.155638	0.269777
C	-0.814295	-5.791452	-0.145543
C	1.813519	-4.803786	0.318377
H	2.403941	-6.821518	0.422058
C	-0.527140	-4.378638	-0.094194
C	0.783072	-3.838032	0.137191
C	-1.556403	-3.413062	-0.275104
C	1.067932	-2.426473	0.188116
C	-1.285420	-2.059348	-0.226701
C	-0.000000	-1.478216	-0.000000
H	-2.151147	-1.394783	-0.378931
C	-2.234582	-6.187987	-0.397845
C	-2.965273	-3.798164	-0.523637
N	-3.204744	-5.170003	-0.567586
C	3.226257	-4.424987	0.567421
C	2.489446	-2.036627	0.439541
N	3.459801	-3.049156	0.609650
O	-2.619468	-7.353131	-0.468608
O	-3.874668	-2.986854	-0.683034
O	4.124806	-5.248946	0.725131
O	2.895819	-0.878829	0.512648
C	-4.595691	-5.563799	-0.813908
H	-4.640022	-6.664085	-0.822891
H	-4.934830	-5.147101	-1.781600
H	-5.246157	-5.148785	-0.020360
C	4.829716	-2.587487	0.851649
H	5.462742	-3.483329	0.962191
H	4.863242	-1.964972	1.765865
H	5.173521	-1.962932	0.005383
C	0.000000	0.000000	0.000000
S	0.271091	0.745405	1.580530
C	0.831198	2.284363	0.904911
C	0.341175	0.937861	-0.985400
C	0.792631	2.178516	-0.493528
H	0.260601	0.716417	-2.059934
H	1.093860	3.006347	-1.152593
H	1.132330	3.111961	1.556025
H	-0.008120	-7.361589	0.909181
H	0.304668	-7.361192	-0.860264
H	-0.188062	-1.478831	1.063500
$end

$rem
JOBTYPE		SP
EXCHANGE	HF
CORRELATION	pRIMP2
BASIS		cc-pvtz
METHOD		rimp2
AUX_BASIS	rimp2-cc-pvtz
SOLVENT_METHOD	PCM
PURECART	11111
SYMMETRY	false
MEM_TOTAL	110000
SCF_CONVERGENCE = 6
THRESH=10
GUI = 2
$end

$solvent
dielectric 4.90
$end
--------------------------------------------------------------

             Standard Nuclear Orientation (Angstroms)
    I     Atom           X                Y                Z
 ----------------------------------------------------------------
    1      C       0.2532800000    -6.7414040000     0.0431600000
    2      C       1.5392130000    -6.1556380000     0.2697770000
    3      C      -0.8142950000    -5.7914520000    -0.1455430000
    4      C       1.8135190000    -4.8037860000     0.3183770000
    5      H       2.4039410000    -6.8215180000     0.4220580000
    6      C      -0.5271400000    -4.3786380000    -0.0941940000
    7      C       0.7830720000    -3.8380320000     0.1371910000
    8      C      -1.5564030000    -3.4130620000    -0.2751040000
    9      C       1.0679320000    -2.4264730000     0.1881160000
   10      C      -1.2854200000    -2.0593480000    -0.2267010000
   11      C       0.0000000000    -1.4782160000     0.0000000000
   12      H      -2.1511470000    -1.3947830000    -0.3789310000
   13      C      -2.2345820000    -6.1879870000    -0.3978450000
   14      C      -2.9652730000    -3.7981640000    -0.5236370000
   15      N      -3.2047440000    -5.1700030000    -0.5675860000
   16      C       3.2262570000    -4.4249870000     0.5674210000
   17      C       2.4894460000    -2.0366270000     0.4395410000
   18      N       3.4598010000    -3.0491560000     0.6096500000
   19      O      -2.6194680000    -7.3531310000    -0.4686080000
   20      O      -3.8746680000    -2.9868540000    -0.6830340000
   21      O       4.1248060000    -5.2489460000     0.7251310000
   22      O       2.8958190000    -0.8788290000     0.5126480000
   23      C      -4.5956910000    -5.5637990000    -0.8139080000
   24      H      -4.6400220000    -6.6640850000    -0.8228910000
   25      H      -4.9348300000    -5.1471010000    -1.7816000000
   26      H      -5.2461570000    -5.1487850000    -0.0203600000
   27      C       4.8297160000    -2.5874870000     0.8516490000
   28      H       5.4627420000    -3.4833290000     0.9621910000
   29      H       4.8632420000    -1.9649720000     1.7658650000
   30      H       5.1735210000    -1.9629320000     0.0053830000
   31      C       0.0000000000     0.0000000000     0.0000000000
   32      S       0.2710910000     0.7454050000     1.5805300000
   33      C       0.8311980000     2.2843630000     0.9049110000
   34      C       0.3411750000     0.9378610000    -0.9854000000
   35      C       0.7926310000     2.1785160000    -0.4935280000
   36      H       0.2606010000     0.7164170000    -2.0599340000
   37      H       1.0938600000     3.0063470000    -1.1525930000
   38      H       1.1323300000     3.1119610000     1.5560250000
   39      H      -0.0081200000    -7.3615890000     0.9091810000
   40      H       0.3046680000    -7.3611920000    -0.8602640000
   41      H      -0.1880620000    -1.4788310000     1.0635000000
 ----------------------------------------------------------------

   11   -1571.7372113333      5.60e-07  Convergence criterion met
 Total energy in the final basis set =    -1571.7372113333
        RIMP2         total energy =     -1576.3942066224 a.u.

                    Orbital Energies (a.u.)
 --------------------------------------------------------------

 Alpha MOs
 -- Occupied --
-91.9902 -20.5502 -20.5440 -20.5413 -20.5399 -15.6260 -15.6208 -11.3918
-11.3846 -11.3832 -11.3784 -11.3079 -11.3070 -11.3043 -11.3041 -11.2959
-11.2884 -11.2873 -11.2855 -11.2685 -11.2677 -11.2630 -11.2624 -11.2591
-11.2555 -11.2523 -11.2503  -8.9899  -6.6707  -6.6702  -6.6696  -1.4182
 -1.4118  -1.3963  -1.3909  -1.2612  -1.2549  -1.2290  -1.1861  -1.1521
 -1.1132  -1.0859  -1.0458  -0.9953  -0.9873  -0.9843  -0.9545  -0.9510
 -0.8952  -0.8860  -0.8762  -0.8595  -0.7918  -0.7754  -0.7739  -0.7680
 -0.7370  -0.7167  -0.7039  -0.6908  -0.6764  -0.6694  -0.6671  -0.6566
 -0.6464  -0.6399  -0.6374  -0.6315  -0.6305  -0.6262  -0.6227  -0.6044
 -0.5839  -0.5742  -0.5674  -0.5609  -0.5565  -0.5508  -0.5499  -0.5475
 -0.5461  -0.5431  -0.5192  -0.5140  -0.5076  -0.4802  -0.4731  -0.4679
 -0.4553  -0.4495  -0.4421  -0.4341  -0.4129  -0.4070  -0.3537  -0.3506
 -0.3281  -0.2902

          Ground-State Mulliken Net Atomic Charges

     Atom                 Charge (a.u.)
  ----------------------------------------
      1 C                    -0.084064
      2 C                    -0.031164
      3 C                    -0.112526
      4 C                    -0.120339
      5 H                     0.198305
      6 C                     0.007619
      7 C                     0.117901
      8 C                    -0.077393
      9 C                    -0.162786
     10 C                    -0.154290
     11 C                     0.244479
     12 H                     0.189847
     13 C                     0.343238
     14 C                     0.350684
     15 N                    -0.090090
     16 C                     0.356439
     17 C                     0.358472
     18 N                    -0.090081
     19 O                    -0.494697
     20 O                    -0.507574
     21 O                    -0.502047
     22 O                    -0.469884
     23 C                    -0.204826
     24 H                     0.139395
     25 H                     0.108926
     26 H                     0.109051
     27 C                    -0.197660
     28 H                     0.132986
     29 H                     0.111285
     30 H                     0.111370
     31 C                    -0.061737
     32 S                     0.013598
     33 C                    -0.206938
     34 C                    -0.184867
     35 C                    -0.194274
     36 H                     0.188355
     37 H                     0.191079
     38 H                     0.212612
     39 H                     0.137320
     40 H                     0.137440
     41 H                     0.186836
  ----------------------------------------
  Sum of atomic charges =     0.000000

                    Cartesian Multipole Moments
 -----------------------------------------------------------------
    Charge (ESU x 10^10)
                 0.0000
    Dipole Moment (Debye)
         X       1.6617      Y       2.5556      Z      -0.0591
       Tot       3.0489
    Quadrupole Moments (Debye-Ang)
        XX    -193.9206     XY      -4.6071     YY    -179.5347
        XZ      -5.2121     YZ      -1.9807     ZZ    -157.0878

 Total job time:  296.40s(wall), 9054.16s(cpu)
        *  Thank you very much for using Q-Chem.  Have a nice day.  *
