 Q-Chem 5.4, Q-Chem, Inc., Pleasanton, CA (2021)
 Q-Chem 5.4.0 for Intel X86 EM64T Linux

User input:
--------------------------------------------------------------
$molecule
0 1
C	0.166281	-6.741404	0.195868
C	1.005696	-6.155638	1.196048
C	-0.530233	-5.791452	-0.634911
C	1.184587	-4.803786	1.409599
H	1.570232	-6.821518	1.868538
C	-0.343266	-4.378638	-0.410996
C	0.511683	-3.838032	0.608444
C	-1.015440	-3.413062	-1.211179
C	0.697165	-2.426473	0.830559
C	-0.838968	-2.059348	-0.999915
C	0.000000	-1.478216	0.000000
H	-1.404302	-1.394783	-1.673009
C	-1.456059	-6.187987	-1.741129
C	-1.934944	-3.798164	-2.307170
N	-2.090139	-5.170003	-2.494766
C	2.106725	-4.424987	2.508468
C	1.624494	-2.036627	1.936893
N	2.258486	-3.049156	2.690936
O	-1.705414	-7.353131	-2.042736
O	-2.529122	-2.986854	-3.013823
O	2.693680	-5.248946	3.206857
O	1.888802	-0.878829	2.254108
C	-2.997334	-5.563799	-3.577543
H	-3.025519	-6.664085	-3.612920
H	-2.635109	-5.147101	-4.536833
H	-4.005702	-5.148785	-3.387762
C	3.152347	-2.587487	3.756883
H	3.566218	-3.483329	4.248464
H	2.590383	-1.964972	4.478763
H	3.959687	-1.962932	3.329599
C	0.000000	0.000000	0.000000
S	0.205093	0.766196	1.580530
C	0.628939	2.348114	0.904911
C	0.258137	0.964028	-0.985400
C	0.599745	2.239309	-0.493528
H	0.197169	0.736404	-2.059934
H	0.827678	3.090243	-1.152593
H	0.856796	3.198808	1.556025
H	-0.590631	-7.361589	0.691254
H	0.786357	-7.361192	-0.463164
H	-0.827669	-1.478831	0.693804
$end

$rem
JOBTYPE		SP
EXCHANGE	HF
CORRELATION	pRIMP2
BASIS		cc-pvtz
METHOD		rimp2
AUX_BASIS	rimp2-cc-pvtz
SOLVENT_METHOD	PCM
PURECART	11111
SYMMETRY	false
MEM_TOTAL	110000
SCF_CONVERGENCE = 6
THRESH=10
GUI = 2
$end

$solvent
dielectric 4.90
$end
--------------------------------------------------------------

             Standard Nuclear Orientation (Angstroms)
    I     Atom           X                Y                Z
 ----------------------------------------------------------------
    1      C       0.1662810000    -6.7414040000     0.1958680000
    2      C       1.0056960000    -6.1556380000     1.1960480000
    3      C      -0.5302330000    -5.7914520000    -0.6349110000
    4      C       1.1845870000    -4.8037860000     1.4095990000
    5      H       1.5702320000    -6.8215180000     1.8685380000
    6      C      -0.3432660000    -4.3786380000    -0.4109960000
    7      C       0.5116830000    -3.8380320000     0.6084440000
    8      C      -1.0154400000    -3.4130620000    -1.2111790000
    9      C       0.6971650000    -2.4264730000     0.8305590000
   10      C      -0.8389680000    -2.0593480000    -0.9999150000
   11      C       0.0000000000    -1.4782160000     0.0000000000
   12      H      -1.4043020000    -1.3947830000    -1.6730090000
   13      C      -1.4560590000    -6.1879870000    -1.7411290000
   14      C      -1.9349440000    -3.7981640000    -2.3071700000
   15      N      -2.0901390000    -5.1700030000    -2.4947660000
   16      C       2.1067250000    -4.4249870000     2.5084680000
   17      C       1.6244940000    -2.0366270000     1.9368930000
   18      N       2.2584860000    -3.0491560000     2.6909360000
   19      O      -1.7054140000    -7.3531310000    -2.0427360000
   20      O      -2.5291220000    -2.9868540000    -3.0138230000
   21      O       2.6936800000    -5.2489460000     3.2068570000
   22      O       1.8888020000    -0.8788290000     2.2541080000
   23      C      -2.9973340000    -5.5637990000    -3.5775430000
   24      H      -3.0255190000    -6.6640850000    -3.6129200000
   25      H      -2.6351090000    -5.1471010000    -4.5368330000
   26      H      -4.0057020000    -5.1487850000    -3.3877620000
   27      C       3.1523470000    -2.5874870000     3.7568830000
   28      H       3.5662180000    -3.4833290000     4.2484640000
   29      H       2.5903830000    -1.9649720000     4.4787630000
   30      H       3.9596870000    -1.9629320000     3.3295990000
   31      C       0.0000000000     0.0000000000     0.0000000000
   32      S       0.2050930000     0.7661960000     1.5805300000
   33      C       0.6289390000     2.3481140000     0.9049110000
   34      C       0.2581370000     0.9640280000    -0.9854000000
   35      C       0.5997450000     2.2393090000    -0.4935280000
   36      H       0.1971690000     0.7364040000    -2.0599340000
   37      H       0.8276780000     3.0902430000    -1.1525930000
   38      H       0.8567960000     3.1988080000     1.5560250000
   39      H      -0.5906310000    -7.3615890000     0.6912540000
   40      H       0.7863570000    -7.3611920000    -0.4631640000
   41      H      -0.8276690000    -1.4788310000     0.6938040000
 ----------------------------------------------------------------

   11   -1571.7134216244      5.89e-07  Convergence criterion met
 Total energy in the final basis set =    -1571.7134216244
        RIMP2         total energy =     -1576.3791697546 a.u.

                    Orbital Energies (a.u.)
 --------------------------------------------------------------

 Alpha MOs
 -- Occupied --
-91.9786 -20.5491 -20.5448 -20.5419 -20.5407 -15.6274 -15.6215 -11.3943
-11.3855 -11.3838 -11.3793 -11.3100 -11.3085 -11.3063 -11.3051 -11.2974
-11.2889 -11.2880 -11.2756 -11.2695 -11.2687 -11.2648 -11.2633 -11.2596
-11.2532 -11.2490 -11.2408  -8.9790  -6.6594  -6.6589  -6.6585  -1.4225
 -1.4124  -1.3990  -1.3916  -1.2634  -1.2557  -1.2298  -1.1847  -1.1484
 -1.1144  -1.0859  -1.0474  -0.9935  -0.9882  -0.9782  -0.9553  -0.9492
 -0.8960  -0.8884  -0.8778  -0.8611  -0.7912  -0.7774  -0.7735  -0.7633
 -0.7317  -0.7191  -0.7017  -0.6903  -0.6823  -0.6706  -0.6679  -0.6576
 -0.6484  -0.6418  -0.6387  -0.6325  -0.6313  -0.6285  -0.6235  -0.6049
 -0.5862  -0.5723  -0.5640  -0.5620  -0.5587  -0.5520  -0.5512  -0.5483
 -0.5479  -0.5440  -0.5162  -0.5145  -0.5104  -0.4837  -0.4760  -0.4607
 -0.4552  -0.4453  -0.4403  -0.4338  -0.4121  -0.4077  -0.3536  -0.3313
 -0.3240  -0.2829

          Ground-State Mulliken Net Atomic Charges

     Atom                 Charge (a.u.)
  ----------------------------------------
      1 C                    -0.084629
      2 C                    -0.029036
      3 C                    -0.110702
      4 C                    -0.123275
      5 H                     0.199155
      6 C                     0.016736
      7 C                     0.119790
      8 C                    -0.099867
      9 C                    -0.205892
     10 C                    -0.142796
     11 C                     0.246325
     12 H                     0.194689
     13 C                     0.343295
     14 C                     0.350831
     15 N                    -0.089902
     16 C                     0.356572
     17 C                     0.395708
     18 N                    -0.090688
     19 O                    -0.494449
     20 O                    -0.507533
     21 O                    -0.501531
     22 O                    -0.464757
     23 C                    -0.204650
     24 H                     0.139514
     25 H                     0.109088
     26 H                     0.109142
     27 C                    -0.197533
     28 H                     0.133740
     29 H                     0.111420
     30 H                     0.111862
     31 C                    -0.092235
     32 S                     0.055800
     33 C                    -0.214584
     34 C                    -0.171971
     35 C                    -0.229850
     36 H                     0.188714
     37 H                     0.186050
     38 H                     0.208501
     39 H                     0.137981
     40 H                     0.138143
     41 H                     0.202824
  ----------------------------------------
  Sum of atomic charges =     0.000000

                    Cartesian Multipole Moments
 -----------------------------------------------------------------
    Charge (ESU x 10^10)
                 0.0000
    Dipole Moment (Debye)
         X       0.9491      Y       1.5011      Z       1.0526
       Tot       2.0645
    Quadrupole Moments (Debye-Ang)
        XX    -175.3556     XY      -1.9907     YY    -179.2619
        XZ     -15.0055     YZ      -6.9637     ZZ    -174.6639

 Total job time:  291.24s(wall), 8948.21s(cpu)
        *  Thank you very much for using Q-Chem.  Have a nice day.  *
