 Q-Chem 5.4, Q-Chem, Inc., Pleasanton, CA (2021)
 Q-Chem 5.4.0 for Intel X86 EM64T Linux

User input:
--------------------------------------------------------------
$molecule
0 1
C	0.197767	-6.741404	0.164018
C	1.198109	-6.155638	1.003240
C	-0.632428	-5.791452	-0.533192
C	1.411364	-4.803786	1.182482
H	1.870845	-6.821518	1.567483
C	-0.409419	-4.378638	-0.345145
C	0.609565	-3.838032	0.510347
C	-1.210332	-3.413062	-1.016449
C	0.830799	-2.426473	0.696879
C	-0.999856	-2.059348	-0.839039
C	0.000000	-1.478216	0.000000
H	-1.673483	-1.394783	-1.403737
C	-1.736282	-6.187987	-1.461835
C	-2.306183	-3.798164	-1.936119
N	-2.491597	-5.170003	-2.093916
C	2.510310	-4.424987	2.104529
C	1.936153	-2.036627	1.625377
N	2.691451	-3.049156	2.257873
O	-2.034222	-7.353131	-1.715561
O	-3.014044	-2.986854	-2.528858
O	3.209622	-5.248946	2.690385
O	2.251529	-0.878829	1.891876
C	-3.573032	-5.563799	-3.002711
H	-3.606932	-6.664085	-3.032655
H	-3.382888	-5.147101	-4.010326
H	-4.533125	-5.148785	-2.640711
C	3.756832	-2.587487	3.152408
H	4.249778	-3.483329	3.564653
H	3.328759	-1.964972	3.960905
H	4.477709	-1.962932	2.591422
C	0.000000	0.000000	0.000000
S	0.137535	0.781156	1.580530
C	0.421895	2.393994	0.904911
C	0.173134	0.982857	-0.985400
C	0.402294	2.283058	-0.493528
H	0.132237	0.750786	-2.059934
H	0.555196	3.150621	-1.152593
H	0.574741	3.261310	1.556025
H	-0.461623	-7.361589	0.783314
H	0.693983	-7.361192	-0.592677
H	-0.694617	-1.478831	0.826987
$end

$rem
JOBTYPE		SP
EXCHANGE	HF
CORRELATION	pRIMP2
BASIS		cc-pvtz
METHOD		rimp2
AUX_BASIS	rimp2-cc-pvtz
SOLVENT_METHOD	PCM
PURECART	11111
SYMMETRY	false
MEM_TOTAL	110000
SCF_CONVERGENCE = 6
THRESH=10
GUI = 2
$end

$solvent
dielectric 4.90
$end
--------------------------------------------------------------

             Standard Nuclear Orientation (Angstroms)
    I     Atom           X                Y                Z
 ----------------------------------------------------------------
    1      C       0.1977670000    -6.7414040000     0.1640180000
    2      C       1.1981090000    -6.1556380000     1.0032400000
    3      C      -0.6324280000    -5.7914520000    -0.5331920000
    4      C       1.4113640000    -4.8037860000     1.1824820000
    5      H       1.8708450000    -6.8215180000     1.5674830000
    6      C      -0.4094190000    -4.3786380000    -0.3451450000
    7      C       0.6095650000    -3.8380320000     0.5103470000
    8      C      -1.2103320000    -3.4130620000    -1.0164490000
    9      C       0.8307990000    -2.4264730000     0.6968790000
   10      C      -0.9998560000    -2.0593480000    -0.8390390000
   11      C       0.0000000000    -1.4782160000     0.0000000000
   12      H      -1.6734830000    -1.3947830000    -1.4037370000
   13      C      -1.7362820000    -6.1879870000    -1.4618350000
   14      C      -2.3061830000    -3.7981640000    -1.9361190000
   15      N      -2.4915970000    -5.1700030000    -2.0939160000
   16      C       2.5103100000    -4.4249870000     2.1045290000
   17      C       1.9361530000    -2.0366270000     1.6253770000
   18      N       2.6914510000    -3.0491560000     2.2578730000
   19      O      -2.0342220000    -7.3531310000    -1.7155610000
   20      O      -3.0140440000    -2.9868540000    -2.5288580000
   21      O       3.2096220000    -5.2489460000     2.6903850000
   22      O       2.2515290000    -0.8788290000     1.8918760000
   23      C      -3.5730320000    -5.5637990000    -3.0027110000
   24      H      -3.6069320000    -6.6640850000    -3.0326550000
   25      H      -3.3828880000    -5.1471010000    -4.0103260000
   26      H      -4.5331250000    -5.1487850000    -2.6407110000
   27      C       3.7568320000    -2.5874870000     3.1524080000
   28      H       4.2497780000    -3.4833290000     3.5646530000
   29      H       3.3287590000    -1.9649720000     3.9609050000
   30      H       4.4777090000    -1.9629320000     2.5914220000
   31      C       0.0000000000     0.0000000000     0.0000000000
   32      S       0.1375350000     0.7811560000     1.5805300000
   33      C       0.4218950000     2.3939940000     0.9049110000
   34      C       0.1731340000     0.9828570000    -0.9854000000
   35      C       0.4022940000     2.2830580000    -0.4935280000
   36      H       0.1322370000     0.7507860000    -2.0599340000
   37      H       0.5551960000     3.1506210000    -1.1525930000
   38      H       0.5747410000     3.2613100000     1.5560250000
   39      H      -0.4616230000    -7.3615890000     0.7833140000
   40      H       0.6939830000    -7.3611920000    -0.5926770000
   41      H      -0.6946170000    -1.4788310000     0.8269870000
 ----------------------------------------------------------------

   11   -1571.7318879502      5.78e-07  Convergence criterion met
 Total energy in the final basis set =    -1571.7318879502
        RIMP2         total energy =     -1576.3918771095 a.u.

                    Orbital Energies (a.u.)
 --------------------------------------------------------------

 Alpha MOs
 -- Occupied --
-91.9825 -20.5492 -20.5443 -20.5420 -20.5408 -15.6265 -15.6215 -11.3926
-11.3850 -11.3838 -11.3793 -11.3093 -11.3085 -11.3056 -11.3049 -11.2968
-11.2915 -11.2892 -11.2790 -11.2695 -11.2683 -11.2648 -11.2627 -11.2596
-11.2530 -11.2517 -11.2452  -8.9826  -6.6632  -6.6627  -6.6623  -1.4197
 -1.4124  -1.3974  -1.3916  -1.2620  -1.2556  -1.2298  -1.1853  -1.1502
 -1.1143  -1.0863  -1.0470  -0.9941  -0.9879  -0.9804  -0.9550  -0.9501
 -0.8958  -0.8877  -0.8772  -0.8605  -0.7920  -0.7762  -0.7735  -0.7656
 -0.7333  -0.7178  -0.7026  -0.6907  -0.6795  -0.6704  -0.6677  -0.6572
 -0.6472  -0.6406  -0.6390  -0.6325  -0.6311  -0.6276  -0.6229  -0.6049
 -0.5852  -0.5736  -0.5649  -0.5617  -0.5580  -0.5514  -0.5507  -0.5481
 -0.5472  -0.5436  -0.5168  -0.5149  -0.5099  -0.4829  -0.4748  -0.4611
 -0.4558  -0.4489  -0.4426  -0.4347  -0.4126  -0.4077  -0.3532  -0.3404
 -0.3276  -0.2857

          Ground-State Mulliken Net Atomic Charges

     Atom                 Charge (a.u.)
  ----------------------------------------
      1 C                    -0.084756
      2 C                    -0.029725
      3 C                    -0.110106
      4 C                    -0.123748
      5 H                     0.198982
      6 C                     0.015453
      7 C                     0.119011
      8 C                    -0.099858
      9 C                    -0.191581
     10 C                    -0.135669
     11 C                     0.249611
     12 H                     0.194674
     13 C                     0.343472
     14 C                     0.351815
     15 N                    -0.090021
     16 C                     0.356201
     17 C                     0.377177
     18 N                    -0.090197
     19 O                    -0.494200
     20 O                    -0.507445
     21 O                    -0.501912
     22 O                    -0.466577
     23 C                    -0.204607
     24 H                     0.139515
     25 H                     0.109092
     26 H                     0.109111
     27 C                    -0.197199
     28 H                     0.133270
     29 H                     0.111146
     30 H                     0.111708
     31 C                    -0.087737
     32 S                     0.040905
     33 C                    -0.213822
     34 C                    -0.177327
     35 C                    -0.215439
     36 H                     0.190744
     37 H                     0.188517
     38 H                     0.210070
     39 H                     0.137851
     40 H                     0.137922
     41 H                     0.195677
  ----------------------------------------
  Sum of atomic charges =     0.000000

                    Cartesian Multipole Moments
 -----------------------------------------------------------------
    Charge (ESU x 10^10)
                 0.0000
    Dipole Moment (Debye)
         X       0.8567      Y       1.9124      Z       0.6060
       Tot       2.1814
    Quadrupole Moments (Debye-Ang)
        XX    -181.7598     XY      -3.7561     YY    -178.4077
        XZ     -15.5554     YZ      -5.8055     ZZ    -169.5018

 Total job time:  356.55s(wall), 11254.63s(cpu)
        *  Thank you very much for using Q-Chem.  Have a nice day.  *
