 Q-Chem 5.4, Q-Chem, Inc., Pleasanton, CA (2021)
 Q-Chem 5.4.0 for Intel X86 EM64T Linux

User input:
--------------------------------------------------------------
$molecule
0 1
C	-0.164018	-6.741404	0.197767
C	-1.003240	-6.155638	1.198109
C	0.533192	-5.791452	-0.632428
C	-1.182482	-4.803786	1.411364
H	-1.567483	-6.821518	1.870845
C	0.345145	-4.378638	-0.409419
C	-0.510347	-3.838032	0.609565
C	1.016449	-3.413062	-1.210332
C	-0.696879	-2.426473	0.830799
C	0.839039	-2.059348	-0.999856
C	-0.000000	-1.478216	-0.000000
H	1.403737	-1.394783	-1.673483
C	1.461835	-6.187987	-1.736282
C	1.936119	-3.798164	-2.306183
N	2.093916	-5.170003	-2.491597
C	-2.104529	-4.424987	2.510310
C	-1.625377	-2.036627	1.936153
N	-2.257873	-3.049156	2.691451
O	1.715561	-7.353131	-2.034222
O	2.528858	-2.986854	-3.014044
O	-2.690385	-5.248946	3.209622
O	-1.891876	-0.878829	2.251529
C	3.002711	-5.563799	-3.573032
H	3.032655	-6.664085	-3.606932
H	4.010326	-5.147101	-3.382888
H	2.640711	-5.148785	-4.533125
C	-3.152408	-2.587487	3.756832
H	-3.564653	-3.483329	4.249778
H	-3.960905	-1.964972	3.328759
H	-2.591422	-1.962932	4.477709
C	0.000000	0.000000	0.000000
S	-0.000201	0.793171	1.580530
C	-0.000228	2.430885	0.904911
C	-0.000168	0.997990	-0.985400
C	-0.000267	2.318231	-0.493528
H	-0.000145	0.762343	-2.059934
H	-0.000339	3.199164	-1.152593
H	-0.000311	3.311566	1.556025
H	-0.783314	-7.361589	-0.461623
H	0.592677	-7.361192	0.693983
H	-0.826987	-1.478831	-0.694617
$end

$rem
JOBTYPE		SP
EXCHANGE	HF
CORRELATION	pRIMP2
BASIS		cc-pvtz
METHOD		rimp2
AUX_BASIS	rimp2-cc-pvtz
SOLVENT_METHOD	PCM
PURECART	11111
SYMMETRY	false
MEM_TOTAL	110000
SCF_CONVERGENCE = 6
THRESH=10
GUI = 2
$end

$solvent
dielectric 4.90
$end
--------------------------------------------------------------

             Standard Nuclear Orientation (Angstroms)
    I     Atom           X                Y                Z
 ----------------------------------------------------------------
    1      C      -0.1640180000    -6.7414040000     0.1977670000
    2      C      -1.0032400000    -6.1556380000     1.1981090000
    3      C       0.5331920000    -5.7914520000    -0.6324280000
    4      C      -1.1824820000    -4.8037860000     1.4113640000
    5      H      -1.5674830000    -6.8215180000     1.8708450000
    6      C       0.3451450000    -4.3786380000    -0.4094190000
    7      C      -0.5103470000    -3.8380320000     0.6095650000
    8      C       1.0164490000    -3.4130620000    -1.2103320000
    9      C      -0.6968790000    -2.4264730000     0.8307990000
   10      C       0.8390390000    -2.0593480000    -0.9998560000
   11      C       0.0000000000    -1.4782160000     0.0000000000
   12      H       1.4037370000    -1.3947830000    -1.6734830000
   13      C       1.4618350000    -6.1879870000    -1.7362820000
   14      C       1.9361190000    -3.7981640000    -2.3061830000
   15      N       2.0939160000    -5.1700030000    -2.4915970000
   16      C      -2.1045290000    -4.4249870000     2.5103100000
   17      C      -1.6253770000    -2.0366270000     1.9361530000
   18      N      -2.2578730000    -3.0491560000     2.6914510000
   19      O       1.7155610000    -7.3531310000    -2.0342220000
   20      O       2.5288580000    -2.9868540000    -3.0140440000
   21      O      -2.6903850000    -5.2489460000     3.2096220000
   22      O      -1.8918760000    -0.8788290000     2.2515290000
   23      C       3.0027110000    -5.5637990000    -3.5730320000
   24      H       3.0326550000    -6.6640850000    -3.6069320000
   25      H       4.0103260000    -5.1471010000    -3.3828880000
   26      H       2.6407110000    -5.1487850000    -4.5331250000
   27      C      -3.1524080000    -2.5874870000     3.7568320000
   28      H      -3.5646530000    -3.4833290000     4.2497780000
   29      H      -3.9609050000    -1.9649720000     3.3287590000
   30      H      -2.5914220000    -1.9629320000     4.4777090000
   31      C       0.0000000000     0.0000000000     0.0000000000
   32      S      -0.0002010000     0.7931710000     1.5805300000
   33      C      -0.0002280000     2.4308850000     0.9049110000
   34      C      -0.0001680000     0.9979900000    -0.9854000000
   35      C      -0.0002670000     2.3182310000    -0.4935280000
   36      H      -0.0001450000     0.7623430000    -2.0599340000
   37      H      -0.0003390000     3.1991640000    -1.1525930000
   38      H      -0.0003110000     3.3115660000     1.5560250000
   39      H      -0.7833140000    -7.3615890000    -0.4616230000
   40      H       0.5926770000    -7.3611920000     0.6939830000
   41      H      -0.8269870000    -1.4788310000    -0.6946170000
 ----------------------------------------------------------------

   11   -1571.7321271575      5.80e-07  Convergence criterion met
 Total energy in the final basis set =    -1571.7321271575
        RIMP2         total energy =     -1576.3929363390 a.u.

                    Orbital Energies (a.u.)
 --------------------------------------------------------------

 Alpha MOs
 -- Occupied --
-91.9791 -20.5508 -20.5450 -20.5422 -20.5411 -15.6275 -15.6218 -11.3944
-11.3857 -11.3841 -11.3797 -11.3109 -11.3096 -11.3071 -11.3055 -11.2979
-11.2966 -11.2914 -11.2719 -11.2700 -11.2691 -11.2654 -11.2632 -11.2598
-11.2535 -11.2507 -11.2436  -8.9790  -6.6596  -6.6590  -6.6586  -1.4216
 -1.4127  -1.3987  -1.3919  -1.2632  -1.2560  -1.2307  -1.1856  -1.1493
 -1.1150  -1.0868  -1.0479  -0.9940  -0.9884  -0.9786  -0.9555  -0.9498
 -0.8967  -0.8890  -0.8780  -0.8613  -0.7929  -0.7782  -0.7723  -0.7592
 -0.7371  -0.7179  -0.7025  -0.6910  -0.6818  -0.6747  -0.6671  -0.6578
 -0.6481  -0.6468  -0.6366  -0.6329  -0.6316  -0.6299  -0.6215  -0.6051
 -0.5860  -0.5737  -0.5635  -0.5621  -0.5588  -0.5523  -0.5513  -0.5486
 -0.5483  -0.5443  -0.5178  -0.5140  -0.5112  -0.4837  -0.4759  -0.4601
 -0.4559  -0.4462  -0.4413  -0.4344  -0.4126  -0.4080  -0.3543  -0.3396
 -0.3271  -0.2820

          Ground-State Mulliken Net Atomic Charges

     Atom                 Charge (a.u.)
  ----------------------------------------
      1 C                    -0.084732
      2 C                    -0.028939
      3 C                    -0.110443
      4 C                    -0.126724
      5 H                     0.199594
      6 C                     0.024897
      7 C                     0.126189
      8 C                    -0.088996
      9 C                    -0.182112
     10 C                    -0.164519
     11 C                     0.238638
     12 H                     0.193883
     13 C                     0.343114
     14 C                     0.350009
     15 N                    -0.089844
     16 C                     0.357691
     17 C                     0.370280
     18 N                    -0.090744
     19 O                    -0.494114
     20 O                    -0.507635
     21 O                    -0.501437
     22 O                    -0.468960
     23 C                    -0.204630
     24 H                     0.139577
     25 H                     0.109452
     26 H                     0.108952
     27 C                    -0.197108
     28 H                     0.133573
     29 H                     0.111535
     30 H                     0.112092
     31 C                    -0.056586
     32 S                     0.058841
     33 C                    -0.228312
     34 C                    -0.198032
     35 C                    -0.222984
     36 H                     0.186758
     37 H                     0.186707
     38 H                     0.207389
     39 H                     0.138078
     40 H                     0.138605
     41 H                     0.211001
  ----------------------------------------
  Sum of atomic charges =     0.000000

                    Cartesian Multipole Moments
 -----------------------------------------------------------------
    Charge (ESU x 10^10)
                 0.0000
    Dipole Moment (Debye)
         X      -1.6399      Y       1.3560      Z      -0.3058
       Tot       2.1498
    Quadrupole Moments (Debye-Ang)
        XX    -176.0573     XY       6.6853     YY    -177.8008
        XZ      15.6353     YZ      -5.3681     ZZ    -175.1741

 Total job time:  332.51s(wall), 10306.72s(cpu)
        *  Thank you very much for using Q-Chem.  Have a nice day.  *
