 Q-Chem 5.4, Q-Chem, Inc., Pleasanton, CA (2021)
 Q-Chem 5.4.0 for Intel X86 EM64T Linux

User input:
--------------------------------------------------------------
$molecule
0 1
C	-0.127184	-6.741404	0.223244
C	-0.779949	-6.155638	1.354118
C	0.415271	-5.791452	-0.715408
C	-0.919437	-4.803786	1.595259
H	-1.218801	-6.821518	2.114613
C	0.268806	-4.378638	-0.463133
C	-0.396744	-3.838032	0.688925
C	0.790835	-3.413062	-1.368449
C	-0.542026	-2.426473	0.939189
C	0.652669	-2.059348	-1.130363
C	-0.000000	-1.478216	-0.000000
H	1.091814	-1.394783	-1.891815
C	1.138124	-6.187987	-1.963749
C	1.506241	-3.798164	-2.607351
N	1.629443	-5.170003	-2.817348
C	-1.636646	-4.424987	2.837621
C	-1.264474	-2.036627	2.188982
N	-1.756205	-3.049156	3.042637
O	1.336258	-7.353131	-2.301222
O	1.967056	-2.986854	-3.407386
O	-2.092167	-5.248946	3.628041
O	-1.472160	-0.878829	2.545844
C	2.336642	-5.563799	-4.040164
H	2.360245	-6.664085	-4.078749
H	3.361968	-5.147101	-4.027880
H	1.813424	-5.148785	-4.922811
C	-2.452149	-2.587487	4.247167
H	-2.772531	-3.483329	4.804209
H	-3.322697	-1.964972	3.965991
H	-1.774507	-1.962932	4.859678
C	0.000000	0.000000	0.000000
S	-0.000201	0.793171	1.580530
C	-0.000228	2.430885	0.904911
C	-0.000168	0.997990	-0.985400
C	-0.000267	2.318231	-0.493528
H	-0.000145	0.762343	-2.059934
H	-0.000339	3.199164	-1.152593
H	-0.000311	3.311566	1.556025
H	-0.851574	-7.361589	-0.318588
H	0.704181	-7.361192	0.580522
H	-0.935042	-1.478831	-0.540459
$end

$rem
JOBTYPE		SP
EXCHANGE	HF
CORRELATION	pRIMP2
BASIS		cc-pvtz
METHOD		rimp2
AUX_BASIS	rimp2-cc-pvtz
SOLVENT_METHOD	PCM
PURECART	11111
SYMMETRY	false
MEM_TOTAL	110000
SCF_CONVERGENCE = 6
THRESH=10
GUI = 2
$end

$solvent
dielectric 4.90
$end
--------------------------------------------------------------

             Standard Nuclear Orientation (Angstroms)
    I     Atom           X                Y                Z
 ----------------------------------------------------------------
    1      C      -0.1271840000    -6.7414040000     0.2232440000
    2      C      -0.7799490000    -6.1556380000     1.3541180000
    3      C       0.4152710000    -5.7914520000    -0.7154080000
    4      C      -0.9194370000    -4.8037860000     1.5952590000
    5      H      -1.2188010000    -6.8215180000     2.1146130000
    6      C       0.2688060000    -4.3786380000    -0.4631330000
    7      C      -0.3967440000    -3.8380320000     0.6889250000
    8      C       0.7908350000    -3.4130620000    -1.3684490000
    9      C      -0.5420260000    -2.4264730000     0.9391890000
   10      C       0.6526690000    -2.0593480000    -1.1303630000
   11      C       0.0000000000    -1.4782160000     0.0000000000
   12      H       1.0918140000    -1.3947830000    -1.8918150000
   13      C       1.1381240000    -6.1879870000    -1.9637490000
   14      C       1.5062410000    -3.7981640000    -2.6073510000
   15      N       1.6294430000    -5.1700030000    -2.8173480000
   16      C      -1.6366460000    -4.4249870000     2.8376210000
   17      C      -1.2644740000    -2.0366270000     2.1889820000
   18      N      -1.7562050000    -3.0491560000     3.0426370000
   19      O       1.3362580000    -7.3531310000    -2.3012220000
   20      O       1.9670560000    -2.9868540000    -3.4073860000
   21      O      -2.0921670000    -5.2489460000     3.6280410000
   22      O      -1.4721600000    -0.8788290000     2.5458440000
   23      C       2.3366420000    -5.5637990000    -4.0401640000
   24      H       2.3602450000    -6.6640850000    -4.0787490000
   25      H       3.3619680000    -5.1471010000    -4.0278800000
   26      H       1.8134240000    -5.1487850000    -4.9228110000
   27      C      -2.4521490000    -2.5874870000     4.2471670000
   28      H      -2.7725310000    -3.4833290000     4.8042090000
   29      H      -3.3226970000    -1.9649720000     3.9659910000
   30      H      -1.7745070000    -1.9629320000     4.8596780000
   31      C       0.0000000000     0.0000000000     0.0000000000
   32      S      -0.0002010000     0.7931710000     1.5805300000
   33      C      -0.0002280000     2.4308850000     0.9049110000
   34      C      -0.0001680000     0.9979900000    -0.9854000000
   35      C      -0.0002670000     2.3182310000    -0.4935280000
   36      H      -0.0001450000     0.7623430000    -2.0599340000
   37      H      -0.0003390000     3.1991640000    -1.1525930000
   38      H      -0.0003110000     3.3115660000     1.5560250000
   39      H      -0.8515740000    -7.3615890000    -0.3185880000
   40      H       0.7041810000    -7.3611920000     0.5805220000
   41      H      -0.9350420000    -1.4788310000    -0.5404590000
 ----------------------------------------------------------------

   11   -1571.7213795084      5.89e-07  Convergence criterion met
 Total energy in the final basis set =    -1571.7213795084
        RIMP2         total energy =     -1576.3851804450 a.u.

                    Orbital Energies (a.u.)
 --------------------------------------------------------------

 Alpha MOs
 -- Occupied --
-91.9762 -20.5519 -20.5456 -20.5425 -20.5413 -15.6286 -15.6221 -11.3964
-11.3863 -11.3844 -11.3799 -11.3118 -11.3097 -11.3078 -11.3058 -11.2985
-11.2959 -11.2917 -11.2706 -11.2696 -11.2665 -11.2660 -11.2638 -11.2599
-11.2539 -11.2479 -11.2406  -8.9762  -6.6567  -6.6559  -6.6554  -1.4245
 -1.4130  -1.4003  -1.3921  -1.2646  -1.2563  -1.2311  -1.1855  -1.1479
 -1.1154  -1.0869  -1.0485  -0.9939  -0.9888  -0.9768  -0.9559  -0.9490
 -0.8972  -0.8899  -0.8787  -0.8620  -0.7926  -0.7793  -0.7733  -0.7582
 -0.7350  -0.7196  -0.7022  -0.6903  -0.6839  -0.6759  -0.6676  -0.6584
 -0.6493  -0.6473  -0.6369  -0.6331  -0.6320  -0.6315  -0.6218  -0.6054
 -0.5872  -0.5730  -0.5641  -0.5615  -0.5585  -0.5530  -0.5519  -0.5492
 -0.5485  -0.5449  -0.5184  -0.5137  -0.5119  -0.4842  -0.4785  -0.4620
 -0.4558  -0.4450  -0.4380  -0.4296  -0.4111  -0.4082  -0.3548  -0.3354
 -0.3262  -0.2798

          Ground-State Mulliken Net Atomic Charges

     Atom                 Charge (a.u.)
  ----------------------------------------
      1 C                    -0.084434
      2 C                    -0.028761
      3 C                    -0.109185
      4 C                    -0.125847
      5 H                     0.199858
      6 C                     0.024675
      7 C                     0.131488
      8 C                    -0.087699
      9 C                    -0.186122
     10 C                    -0.172306
     11 C                     0.239542
     12 H                     0.192762
     13 C                     0.342539
     14 C                     0.350917
     15 N                    -0.089993
     16 C                     0.358014
     17 C                     0.379445
     18 N                    -0.090911
     19 O                    -0.493736
     20 O                    -0.507476
     21 O                    -0.500767
     22 O                    -0.467661
     23 C                    -0.204654
     24 H                     0.139608
     25 H                     0.109549
     26 H                     0.109112
     27 C                    -0.197695
     28 H                     0.134079
     29 H                     0.111819
     30 H                     0.112524
     31 C                    -0.062067
     32 S                     0.069282
     33 C                    -0.237843
     34 C                    -0.189222
     35 C                    -0.232683
     36 H                     0.182331
     37 H                     0.184547
     38 H                     0.205755
     39 H                     0.138391
     40 H                     0.138867
     41 H                     0.213956
  ----------------------------------------
  Sum of atomic charges =     0.000000

                    Cartesian Multipole Moments
 -----------------------------------------------------------------
    Charge (ESU x 10^10)
                 0.0000
    Dipole Moment (Debye)
         X      -1.6698      Y       0.8769      Z       0.1917
       Tot       1.8958
    Quadrupole Moments (Debye-Ang)
        XX    -170.5452     XY       5.6734     YY    -177.5513
        XZ      13.3527     YZ      -6.7031     ZZ    -179.8812

 Total job time:  313.98s(wall), 8764.66s(cpu)
        *  Thank you very much for using Q-Chem.  Have a nice day.  *
