 Q-Chem 5.4, Q-Chem, Inc., Pleasanton, CA (2021)
 Q-Chem 5.4.0 for Intel X86 EM64T Linux

User input:
--------------------------------------------------------------
$molecule
0 1
C	0.001478	-6.741404	0.256927
C	0.001603	-6.155638	1.562675
C	0.001931	-5.791452	-0.827197
C	0.001374	-4.803786	1.841253
H	0.001794	-6.821518	2.440709
C	0.001227	-4.378638	-0.535488
C	0.000872	-3.838032	0.794999
C	0.000658	-3.413062	-1.580529
C	0.000186	-2.426473	1.084374
C	0.000046	-2.059348	-1.305258
C	0.000000	-1.478216	0.000000
H	-0.000369	-1.394783	-2.184267
C	0.003770	-6.187987	-2.269719
C	0.000767	-3.798164	-3.011152
N	0.002465	-5.170003	-3.254617
C	0.001433	-4.424987	3.275775
C	-0.000576	-2.036627	2.527951
N	0.000400	-3.049156	3.513104
O	0.006623	-7.353131	-2.661046
O	-0.000172	-2.986854	-3.934410
O	0.002151	-5.248946	4.188059
O	-0.002006	-0.878829	2.940845
C	0.003509	-5.563799	-4.667206
H	0.004658	-6.664085	-4.712423
H	0.897610	-5.147101	-5.169231
H	-0.890935	-5.148785	-5.169992
C	-0.000039	-2.587487	4.904229
H	0.001022	-3.483329	5.546833
H	-0.894545	-1.964972	5.095998
H	0.893071	-1.962932	5.095858
C	0.000000	0.000000	0.000000
S	0.396411	0.687007	1.580530
C	1.215245	2.105322	0.904911
C	0.498850	0.864369	-0.985400
C	1.158885	2.007781	-0.493528
H	0.381046	0.660280	-2.059934
H	1.599289	2.770727	-1.152593
H	1.655514	2.868056	1.556025
H	-0.896779	-7.361589	0.149881
H	0.900100	-7.361192	0.150656
H	-1.080000	-1.478831	-0.000531
$end

$rem
JOBTYPE		SP
EXCHANGE	HF
CORRELATION	pRIMP2
BASIS		cc-pvtz
METHOD		rimp2
AUX_BASIS	rimp2-cc-pvtz
SOLVENT_METHOD	PCM
PURECART	11111
SYMMETRY	false
MEM_TOTAL	110000
SCF_CONVERGENCE = 6
THRESH=10
GUI = 2
$end

$solvent
dielectric 4.90
$end
--------------------------------------------------------------

             Standard Nuclear Orientation (Angstroms)
    I     Atom           X                Y                Z
 ----------------------------------------------------------------
    1      C       0.0014780000    -6.7414040000     0.2569270000
    2      C       0.0016030000    -6.1556380000     1.5626750000
    3      C       0.0019310000    -5.7914520000    -0.8271970000
    4      C       0.0013740000    -4.8037860000     1.8412530000
    5      H       0.0017940000    -6.8215180000     2.4407090000
    6      C       0.0012270000    -4.3786380000    -0.5354880000
    7      C       0.0008720000    -3.8380320000     0.7949990000
    8      C       0.0006580000    -3.4130620000    -1.5805290000
    9      C       0.0001860000    -2.4264730000     1.0843740000
   10      C       0.0000460000    -2.0593480000    -1.3052580000
   11      C       0.0000000000    -1.4782160000     0.0000000000
   12      H      -0.0003690000    -1.3947830000    -2.1842670000
   13      C       0.0037700000    -6.1879870000    -2.2697190000
   14      C       0.0007670000    -3.7981640000    -3.0111520000
   15      N       0.0024650000    -5.1700030000    -3.2546170000
   16      C       0.0014330000    -4.4249870000     3.2757750000
   17      C      -0.0005760000    -2.0366270000     2.5279510000
   18      N       0.0004000000    -3.0491560000     3.5131040000
   19      O       0.0066230000    -7.3531310000    -2.6610460000
   20      O      -0.0001720000    -2.9868540000    -3.9344100000
   21      O       0.0021510000    -5.2489460000     4.1880590000
   22      O      -0.0020060000    -0.8788290000     2.9408450000
   23      C       0.0035090000    -5.5637990000    -4.6672060000
   24      H       0.0046580000    -6.6640850000    -4.7124230000
   25      H       0.8976100000    -5.1471010000    -5.1692310000
   26      H      -0.8909350000    -5.1487850000    -5.1699920000
   27      C      -0.0000390000    -2.5874870000     4.9042290000
   28      H       0.0010220000    -3.4833290000     5.5468330000
   29      H      -0.8945450000    -1.9649720000     5.0959980000
   30      H       0.8930710000    -1.9629320000     5.0958580000
   31      C       0.0000000000     0.0000000000     0.0000000000
   32      S       0.3964110000     0.6870070000     1.5805300000
   33      C       1.2152450000     2.1053220000     0.9049110000
   34      C       0.4988500000     0.8643690000    -0.9854000000
   35      C       1.1588850000     2.0077810000    -0.4935280000
   36      H       0.3810460000     0.6602800000    -2.0599340000
   37      H       1.5992890000     2.7707270000    -1.1525930000
   38      H       1.6555140000     2.8680560000     1.5560250000
   39      H      -0.8967790000    -7.3615890000     0.1498810000
   40      H       0.9001000000    -7.3611920000     0.1506560000
   41      H      -1.0800000000    -1.4788310000    -0.0005310000
 ----------------------------------------------------------------

   11   -1571.6646311268      6.02e-07  Convergence criterion met
 Total energy in the final basis set =    -1571.6646311268
        RIMP2         total energy =     -1576.3408840355 a.u.

                    Orbital Energies (a.u.)
 --------------------------------------------------------------

 Alpha MOs
 -- Occupied --
-91.9675 -20.5595 -20.5471 -20.5413 -20.5409 -15.6322 -15.6216 -11.4028
-11.3879 -11.3834 -11.3794 -11.3117 -11.3096 -11.3089 -11.3055 -11.2989
-11.2883 -11.2845 -11.2700 -11.2687 -11.2657 -11.2654 -11.2596 -11.2575
-11.2535 -11.2502 -11.2364  -8.9678  -6.6483  -6.6466  -6.6456  -1.4369
 -1.4123  -1.4043  -1.3915  -1.2694  -1.2559  -1.2310  -1.1851  -1.1456
 -1.1154  -1.0853  -1.0490  -0.9949  -0.9894  -0.9764  -0.9566  -0.9472
 -0.8993  -0.8908  -0.8798  -0.8628  -0.7909  -0.7830  -0.7763  -0.7590
 -0.7303  -0.7287  -0.7015  -0.6896  -0.6890  -0.6766  -0.6689  -0.6591
 -0.6520  -0.6448  -0.6375  -0.6337  -0.6326  -0.6318  -0.6231  -0.6064
 -0.5905  -0.5713  -0.5689  -0.5634  -0.5570  -0.5559  -0.5535  -0.5496
 -0.5480  -0.5455  -0.5234  -0.5131  -0.5108  -0.4899  -0.4722  -0.4633
 -0.4554  -0.4440  -0.4378  -0.4207  -0.4080  -0.3780  -0.3550  -0.3340
 -0.3265  -0.2743

          Ground-State Mulliken Net Atomic Charges

     Atom                 Charge (a.u.)
  ----------------------------------------
      1 C                    -0.084501
      2 C                    -0.028733
      3 C                    -0.110436
      4 C                    -0.121807
      5 H                     0.199578
      6 C                     0.025645
      7 C                     0.119780
      8 C                    -0.096416
      9 C                    -0.198634
     10 C                    -0.127242
     11 C                     0.174297
     12 H                     0.193491
     13 C                     0.341452
     14 C                     0.347313
     15 N                    -0.089887
     16 C                     0.358031
     17 C                     0.389433
     18 N                    -0.086960
     19 O                    -0.495780
     20 O                    -0.508952
     21 O                    -0.498629
     22 O                    -0.436081
     23 C                    -0.205024
     24 H                     0.139595
     25 H                     0.109305
     26 H                     0.109069
     27 C                    -0.199029
     28 H                     0.135576
     29 H                     0.112737
     30 H                     0.113502
     31 C                    -0.016904
     32 S                     0.079517
     33 C                    -0.257488
     34 C                    -0.207158
     35 C                    -0.230699
     36 H                     0.180797
     37 H                     0.180211
     38 H                     0.199714
     39 H                     0.137881
     40 H                     0.138181
     41 H                     0.215254
  ----------------------------------------
  Sum of atomic charges =     0.000000

                    Cartesian Multipole Moments
 -----------------------------------------------------------------
    Charge (ESU x 10^10)
                 0.0000
    Dipole Moment (Debye)
         X      -0.3263      Y       0.4761      Z       1.4965
       Tot       1.6040
    Quadrupole Moments (Debye-Ang)
        XX    -160.5495     XY       4.8287     YY    -181.6681
        XZ       0.4019     YZ     -10.5912     ZZ    -185.8516

 Total job time:  347.51s(wall), 9171.21s(cpu)
        *  Thank you very much for using Q-Chem.  Have a nice day.  *
