 Q-Chem 5.4, Q-Chem, Inc., Pleasanton, CA (2021)
 Q-Chem 5.4.0 for Intel X86 EM64T Linux

User input:
--------------------------------------------------------------
$molecule
0 1
C	-0.086486	-6.741404	0.241938
C	-0.532960	-6.155638	1.468983
C	0.284733	-5.791452	-0.776651
C	-0.628455	-4.803786	1.730681
H	-0.833086	-6.821518	2.294130
C	0.184300	-4.378638	-0.502775
C	-0.271086	-3.838032	0.747353
C	0.541191	-3.413062	-1.484986
C	-0.370703	-2.426473	1.019042
C	0.446468	-2.059348	-1.226525
C	0.000000	-1.478216	0.000000
H	0.746717	-1.394783	-2.052666
C	0.779832	-6.187987	-2.131549
C	1.030596	-3.798164	-2.829295
N	1.115461	-5.170003	-3.057496
C	-1.119034	-4.424987	3.078712
C	-0.865151	-2.036627	2.375300
N	-1.201176	-3.049156	3.301374
O	0.916355	-7.353131	-2.498300
O	1.345486	-2.986854	-3.697195
O	-1.430379	-5.248946	3.936224
O	-1.007714	-0.878829	2.762805
C	1.599576	-5.563799	-4.384539
H	1.616121	-6.664085	-4.426636
H	2.611458	-5.147101	-4.550487
H	0.931037	-5.148785	-5.162921
C	-1.677382	-2.587487	4.608454
H	-1.896168	-3.483329	5.212668
H	-2.583531	-1.964972	4.482719
H	-0.903674	-1.962932	5.093988
C	0.000000	0.000000	0.000000
S	0.068929	0.790170	1.580530
C	0.211639	2.421655	0.904911
C	0.086813	0.994207	-0.985400
C	0.201782	2.309433	-0.493528
H	0.066299	0.759454	-2.059934
H	0.278488	3.187020	-1.152593
H	0.288312	3.298992	1.556025
H	-0.893959	-7.361589	-0.165874
H	0.794290	-7.361192	0.449423
H	-1.014686	-1.478831	-0.369880
$end

$rem
JOBTYPE		SP
EXCHANGE	HF
CORRELATION	pRIMP2
BASIS		cc-pvtz
METHOD		rimp2
AUX_BASIS	rimp2-cc-pvtz
SOLVENT_METHOD	PCM
PURECART	11111
SYMMETRY	false
MEM_TOTAL	110000
SCF_CONVERGENCE = 6
THRESH=10
GUI = 2
$end

$solvent
dielectric 4.90
$end
--------------------------------------------------------------

             Standard Nuclear Orientation (Angstroms)
    I     Atom           X                Y                Z
 ----------------------------------------------------------------
    1      C      -0.0864860000    -6.7414040000     0.2419380000
    2      C      -0.5329600000    -6.1556380000     1.4689830000
    3      C       0.2847330000    -5.7914520000    -0.7766510000
    4      C      -0.6284550000    -4.8037860000     1.7306810000
    5      H      -0.8330860000    -6.8215180000     2.2941300000
    6      C       0.1843000000    -4.3786380000    -0.5027750000
    7      C      -0.2710860000    -3.8380320000     0.7473530000
    8      C       0.5411910000    -3.4130620000    -1.4849860000
    9      C      -0.3707030000    -2.4264730000     1.0190420000
   10      C       0.4464680000    -2.0593480000    -1.2265250000
   11      C       0.0000000000    -1.4782160000     0.0000000000
   12      H       0.7467170000    -1.3947830000    -2.0526660000
   13      C       0.7798320000    -6.1879870000    -2.1315490000
   14      C       1.0305960000    -3.7981640000    -2.8292950000
   15      N       1.1154610000    -5.1700030000    -3.0574960000
   16      C      -1.1190340000    -4.4249870000     3.0787120000
   17      C      -0.8651510000    -2.0366270000     2.3753000000
   18      N      -1.2011760000    -3.0491560000     3.3013740000
   19      O       0.9163550000    -7.3531310000    -2.4983000000
   20      O       1.3454860000    -2.9868540000    -3.6971950000
   21      O      -1.4303790000    -5.2489460000     3.9362240000
   22      O      -1.0077140000    -0.8788290000     2.7628050000
   23      C       1.5995760000    -5.5637990000    -4.3845390000
   24      H       1.6161210000    -6.6640850000    -4.4266360000
   25      H       2.6114580000    -5.1471010000    -4.5504870000
   26      H       0.9310370000    -5.1487850000    -5.1629210000
   27      C      -1.6773820000    -2.5874870000     4.6084540000
   28      H      -1.8961680000    -3.4833290000     5.2126680000
   29      H      -2.5835310000    -1.9649720000     4.4827190000
   30      H      -0.9036740000    -1.9629320000     5.0939880000
   31      C       0.0000000000     0.0000000000     0.0000000000
   32      S       0.0689290000     0.7901700000     1.5805300000
   33      C       0.2116390000     2.4216550000     0.9049110000
   34      C       0.0868130000     0.9942070000    -0.9854000000
   35      C       0.2017820000     2.3094330000    -0.4935280000
   36      H       0.0662990000     0.7594540000    -2.0599340000
   37      H       0.2784880000     3.1870200000    -1.1525930000
   38      H       0.2883120000     3.2989920000     1.5560250000
   39      H      -0.8939590000    -7.3615890000    -0.1658740000
   40      H       0.7942900000    -7.3611920000     0.4494230000
   41      H      -1.0146860000    -1.4788310000    -0.3698800000
 ----------------------------------------------------------------

   11   -1571.7127268744      5.95e-07  Convergence criterion met
 Total energy in the final basis set =    -1571.7127268744
        RIMP2         total energy =     -1576.3782850621 a.u.

                    Orbital Energies (a.u.)
 --------------------------------------------------------------

 Alpha MOs
 -- Occupied --
-91.9732 -20.5545 -20.5463 -20.5428 -20.5417 -15.6300 -15.6224 -11.3988
-11.3871 -11.3847 -11.3803 -11.3126 -11.3101 -11.3086 -11.3062 -11.2992
-11.2959 -11.2921 -11.2711 -11.2702 -11.2666 -11.2645 -11.2607 -11.2601
-11.2544 -11.2468 -11.2391  -8.9732  -6.6537  -6.6527  -6.6520  -1.4280
 -1.4133  -1.4019  -1.3924  -1.2663  -1.2567  -1.2317  -1.1857  -1.1469
 -1.1160  -1.0871  -1.0492  -0.9942  -0.9893  -0.9758  -0.9564  -0.9485
 -0.8981  -0.8910  -0.8795  -0.8627  -0.7926  -0.7807  -0.7745  -0.7579
 -0.7332  -0.7223  -0.7022  -0.6899  -0.6863  -0.6769  -0.6684  -0.6590
 -0.6506  -0.6474  -0.6375  -0.6334  -0.6330  -0.6323  -0.6224  -0.6060
 -0.5887  -0.5728  -0.5654  -0.5622  -0.5572  -0.5538  -0.5527  -0.5498
 -0.5487  -0.5454  -0.5199  -0.5134  -0.5123  -0.4856  -0.4800  -0.4635
 -0.4561  -0.4451  -0.4378  -0.4227  -0.4087  -0.4044  -0.3553  -0.3359
 -0.3272  -0.2782

          Ground-State Mulliken Net Atomic Charges

     Atom                 Charge (a.u.)
  ----------------------------------------
      1 C                    -0.084170
      2 C                    -0.028898
      3 C                    -0.107166
      4 C                    -0.124281
      5 H                     0.200091
      6 C                     0.024340
      7 C                     0.133544
      8 C                    -0.089479
      9 C                    -0.177395
     10 C                    -0.171090
     11 C                     0.231243
     12 H                     0.191529
     13 C                     0.341968
     14 C                     0.351073
     15 N                    -0.090341
     16 C                     0.358440
     17 C                     0.378646
     18 N                    -0.090353
     19 O                    -0.493442
     20 O                    -0.507398
     21 O                    -0.499922
     22 O                    -0.462538
     23 C                    -0.204688
     24 H                     0.139648
     25 H                     0.109614
     26 H                     0.109309
     27 C                    -0.198173
     28 H                     0.134527
     29 H                     0.112283
     30 H                     0.113072
     31 C                    -0.057919
     32 S                     0.075134
     33 C                    -0.251422
     34 C                    -0.189782
     35 C                    -0.234377
     36 H                     0.178798
     37 H                     0.182610
     38 H                     0.203788
     39 H                     0.138646
     40 H                     0.139179
     41 H                     0.215350
  ----------------------------------------
  Sum of atomic charges =     0.000000

                    Cartesian Multipole Moments
 -----------------------------------------------------------------
    Charge (ESU x 10^10)
                 0.0000
    Dipole Moment (Debye)
         X      -1.4480      Y       0.4623      Z       0.5781
       Tot       1.6262
    Quadrupole Moments (Debye-Ang)
        XX    -166.1669     XY       5.2346     YY    -177.2396
        XZ       9.6748     YZ      -8.0532     ZZ    -183.4621

 Total job time:  311.16s(wall), 8910.06s(cpu)
        *  Thank you very much for using Q-Chem.  Have a nice day.  *
