 Q-Chem 5.4, Q-Chem, Inc., Pleasanton, CA (2021)
 Q-Chem 5.4.0 for Intel X86 EM64T Linux

User input:
--------------------------------------------------------------
$molecule
0 1
C	0.166281	-6.741404	0.195868
C	1.005696	-6.155638	1.196048
C	-0.530233	-5.791452	-0.634911
C	1.184587	-4.803786	1.409599
H	1.570232	-6.821518	1.868538
C	-0.343266	-4.378638	-0.410996
C	0.511683	-3.838032	0.608444
C	-1.015440	-3.413062	-1.211179
C	0.697165	-2.426473	0.830559
C	-0.838968	-2.059348	-0.999915
C	0.000000	-1.478216	0.000000
H	-1.404302	-1.394783	-1.673009
C	-1.456059	-6.187987	-1.741129
C	-1.934944	-3.798164	-2.307170
N	-2.090139	-5.170003	-2.494766
C	2.106725	-4.424987	2.508468
C	1.624494	-2.036627	1.936893
N	2.258486	-3.049156	2.690936
O	-1.705414	-7.353131	-2.042736
O	-2.529122	-2.986854	-3.013823
O	2.693680	-5.248946	3.206857
O	1.888802	-0.878829	2.254108
C	-2.997334	-5.563799	-3.577543
H	-3.025519	-6.664085	-3.612920
H	-2.635109	-5.147101	-4.536833
H	-4.005702	-5.148785	-3.387762
C	3.152347	-2.587487	3.756883
H	3.566218	-3.483329	4.248464
H	2.590383	-1.964972	4.478763
H	3.959687	-1.962932	3.329599
C	0.000000	0.000000	0.000000
S	0.396411	0.687007	1.580530
C	1.215245	2.105322	0.904911
C	0.498850	0.864369	-0.985400
C	1.158885	2.007781	-0.493528
H	0.381046	0.660280	-2.059934
H	1.599289	2.770727	-1.152593
H	1.655514	2.868056	1.556025
H	-0.590631	-7.361589	0.691254
H	0.786357	-7.361192	-0.463164
H	-0.827669	-1.478831	0.693804
$end

$rem
JOBTYPE		SP
EXCHANGE	HF
CORRELATION	pRIMP2
BASIS		cc-pvtz
METHOD		rimp2
AUX_BASIS	rimp2-cc-pvtz
SOLVENT_METHOD	PCM
PURECART	11111
SYMMETRY	false
MEM_TOTAL	110000
SCF_CONVERGENCE = 6
THRESH=10
GUI = 2
$end

$solvent
dielectric 4.90
$end
--------------------------------------------------------------

             Standard Nuclear Orientation (Angstroms)
    I     Atom           X                Y                Z
 ----------------------------------------------------------------
    1      C       0.1662810000    -6.7414040000     0.1958680000
    2      C       1.0056960000    -6.1556380000     1.1960480000
    3      C      -0.5302330000    -5.7914520000    -0.6349110000
    4      C       1.1845870000    -4.8037860000     1.4095990000
    5      H       1.5702320000    -6.8215180000     1.8685380000
    6      C      -0.3432660000    -4.3786380000    -0.4109960000
    7      C       0.5116830000    -3.8380320000     0.6084440000
    8      C      -1.0154400000    -3.4130620000    -1.2111790000
    9      C       0.6971650000    -2.4264730000     0.8305590000
   10      C      -0.8389680000    -2.0593480000    -0.9999150000
   11      C       0.0000000000    -1.4782160000     0.0000000000
   12      H      -1.4043020000    -1.3947830000    -1.6730090000
   13      C      -1.4560590000    -6.1879870000    -1.7411290000
   14      C      -1.9349440000    -3.7981640000    -2.3071700000
   15      N      -2.0901390000    -5.1700030000    -2.4947660000
   16      C       2.1067250000    -4.4249870000     2.5084680000
   17      C       1.6244940000    -2.0366270000     1.9368930000
   18      N       2.2584860000    -3.0491560000     2.6909360000
   19      O      -1.7054140000    -7.3531310000    -2.0427360000
   20      O      -2.5291220000    -2.9868540000    -3.0138230000
   21      O       2.6936800000    -5.2489460000     3.2068570000
   22      O       1.8888020000    -0.8788290000     2.2541080000
   23      C      -2.9973340000    -5.5637990000    -3.5775430000
   24      H      -3.0255190000    -6.6640850000    -3.6129200000
   25      H      -2.6351090000    -5.1471010000    -4.5368330000
   26      H      -4.0057020000    -5.1487850000    -3.3877620000
   27      C       3.1523470000    -2.5874870000     3.7568830000
   28      H       3.5662180000    -3.4833290000     4.2484640000
   29      H       2.5903830000    -1.9649720000     4.4787630000
   30      H       3.9596870000    -1.9629320000     3.3295990000
   31      C       0.0000000000     0.0000000000     0.0000000000
   32      S       0.3964110000     0.6870070000     1.5805300000
   33      C       1.2152450000     2.1053220000     0.9049110000
   34      C       0.4988500000     0.8643690000    -0.9854000000
   35      C       1.1588850000     2.0077810000    -0.4935280000
   36      H       0.3810460000     0.6602800000    -2.0599340000
   37      H       1.5992890000     2.7707270000    -1.1525930000
   38      H       1.6555140000     2.8680560000     1.5560250000
   39      H      -0.5906310000    -7.3615890000     0.6912540000
   40      H       0.7863570000    -7.3611920000    -0.4631640000
   41      H      -0.8276690000    -1.4788310000     0.6938040000
 ----------------------------------------------------------------

   11   -1571.6779031943      6.28e-07  Convergence criterion met
 Total energy in the final basis set =    -1571.6779031943
        RIMP2         total energy =     -1576.3540526787 a.u.

                    Orbital Energies (a.u.)
 --------------------------------------------------------------

 Alpha MOs
 -- Occupied --
-91.9800 -20.5504 -20.5453 -20.5411 -20.5399 -15.6288 -15.6209 -11.3967
-11.3860 -11.3830 -11.3784 -11.3099 -11.3069 -11.3062 -11.3046 -11.2976
-11.2855 -11.2775 -11.2775 -11.2688 -11.2683 -11.2642 -11.2633 -11.2592
-11.2529 -11.2473 -11.2384  -8.9804  -6.6606  -6.6603  -6.6596  -1.4268
 -1.4117  -1.4009  -1.3909  -1.2652  -1.2551  -1.2290  -1.1840  -1.1474
 -1.1138  -1.0847  -1.0470  -0.9933  -0.9883  -0.9784  -0.9553  -0.9484
 -0.8963  -0.8876  -0.8780  -0.8612  -0.7892  -0.7785  -0.7737  -0.7627
 -0.7307  -0.7213  -0.7016  -0.6900  -0.6840  -0.6700  -0.6677  -0.6577
 -0.6495  -0.6421  -0.6380  -0.6320  -0.6311  -0.6285  -0.6247  -0.6042
 -0.5865  -0.5703  -0.5659  -0.5622  -0.5589  -0.5528  -0.5519  -0.5488
 -0.5476  -0.5440  -0.5157  -0.5146  -0.5097  -0.4838  -0.4728  -0.4603
 -0.4545  -0.4441  -0.4404  -0.4322  -0.4123  -0.4072  -0.3532  -0.3278
 -0.3084  -0.2821

          Ground-State Mulliken Net Atomic Charges

     Atom                 Charge (a.u.)
  ----------------------------------------
      1 C                    -0.084628
      2 C                    -0.028413
      3 C                    -0.113792
      4 C                    -0.121661
      5 H                     0.199086
      6 C                     0.014687
      7 C                     0.122240
      8 C                    -0.093301
      9 C                    -0.235151
     10 C                    -0.149829
     11 C                     0.227172
     12 H                     0.193470
     13 C                     0.342987
     14 C                     0.347656
     15 N                    -0.089587
     16 C                     0.356830
     17 C                     0.417222
     18 N                    -0.089714
     19 O                    -0.495673
     20 O                    -0.508248
     21 O                    -0.501102
     22 O                    -0.456473
     23 C                    -0.204874
     24 H                     0.139378
     25 H                     0.108948
     26 H                     0.109013
     27 C                    -0.197930
     28 H                     0.134284
     29 H                     0.111715
     30 H                     0.111966
     31 C                    -0.091783
     32 S                     0.065512
     33 C                    -0.202671
     34 C                    -0.163234
     35 C                    -0.239430
     36 H                     0.188335
     37 H                     0.185497
     38 H                     0.207833
     39 H                     0.137731
     40 H                     0.137988
     41 H                     0.207943
  ----------------------------------------
  Sum of atomic charges =     0.000000

                    Cartesian Multipole Moments
 -----------------------------------------------------------------
    Charge (ESU x 10^10)
                 0.0000
    Dipole Moment (Debye)
         X       1.7664      Y       1.3377      Z       1.5558
       Tot       2.7074
    Quadrupole Moments (Debye-Ang)
        XX    -173.1298     XY      -0.6144     YY    -182.1957
        XZ     -14.0395     YZ      -7.5846     ZZ    -174.0122

 Total job time:  308.97s(wall), 9021.78s(cpu)
        *  Thank you very much for using Q-Chem.  Have a nice day.  *
