 Q-Chem 5.4, Q-Chem, Inc., Pleasanton, CA (2021)
 Q-Chem 5.4.0 for Intel X86 EM64T Linux

User input:
--------------------------------------------------------------
$molecule
0 1
C	-0.086486	-6.741404	0.241938
C	-0.532960	-6.155638	1.468983
C	0.284733	-5.791452	-0.776651
C	-0.628455	-4.803786	1.730681
H	-0.833086	-6.821518	2.294130
C	0.184300	-4.378638	-0.502775
C	-0.271086	-3.838032	0.747353
C	0.541191	-3.413062	-1.484986
C	-0.370703	-2.426473	1.019042
C	0.446468	-2.059348	-1.226525
C	-0.000000	-1.478216	-0.000000
H	0.746717	-1.394783	-2.052666
C	0.779832	-6.187987	-2.131549
C	1.030596	-3.798164	-2.829295
N	1.115461	-5.170003	-3.057496
C	-1.119034	-4.424987	3.078712
C	-0.865151	-2.036627	2.375300
N	-1.201176	-3.049156	3.301374
O	0.916355	-7.353131	-2.498300
O	1.345486	-2.986854	-3.697195
O	-1.430379	-5.248946	3.936224
O	-1.007714	-0.878829	2.762805
C	1.599576	-5.563799	-4.384539
H	1.616121	-6.664085	-4.426636
H	2.611458	-5.147101	-4.550487
H	0.931037	-5.148785	-5.162921
C	-1.677382	-2.587487	4.608454
H	-1.896168	-3.483329	5.212668
H	-2.583531	-1.964972	4.482719
H	-0.903674	-1.962932	5.093988
C	0.000000	0.000000	0.000000
S	0.686805	0.396760	1.580530
C	2.105095	1.215640	0.904911
C	0.864201	0.499140	-0.985400
C	2.007514	1.159347	-0.493528
H	0.660136	0.381296	-2.059934
H	2.770388	1.599875	-1.152593
H	2.867745	1.656053	1.556025
H	-0.893959	-7.361589	-0.165874
H	0.794290	-7.361192	0.449423
H	-1.014686	-1.478831	-0.369880
$end

$rem
JOBTYPE		SP
EXCHANGE	HF
CORRELATION	pRIMP2
BASIS		cc-pvtz
METHOD		rimp2
AUX_BASIS	rimp2-cc-pvtz
SOLVENT_METHOD	PCM
PURECART	11111
SYMMETRY	false
MEM_TOTAL	110000
SCF_CONVERGENCE = 6
THRESH=10
GUI = 2
$end

$solvent
dielectric 4.90
$end
--------------------------------------------------------------

             Standard Nuclear Orientation (Angstroms)
    I     Atom           X                Y                Z
 ----------------------------------------------------------------
    1      C      -0.0864860000    -6.7414040000     0.2419380000
    2      C      -0.5329600000    -6.1556380000     1.4689830000
    3      C       0.2847330000    -5.7914520000    -0.7766510000
    4      C      -0.6284550000    -4.8037860000     1.7306810000
    5      H      -0.8330860000    -6.8215180000     2.2941300000
    6      C       0.1843000000    -4.3786380000    -0.5027750000
    7      C      -0.2710860000    -3.8380320000     0.7473530000
    8      C       0.5411910000    -3.4130620000    -1.4849860000
    9      C      -0.3707030000    -2.4264730000     1.0190420000
   10      C       0.4464680000    -2.0593480000    -1.2265250000
   11      C       0.0000000000    -1.4782160000     0.0000000000
   12      H       0.7467170000    -1.3947830000    -2.0526660000
   13      C       0.7798320000    -6.1879870000    -2.1315490000
   14      C       1.0305960000    -3.7981640000    -2.8292950000
   15      N       1.1154610000    -5.1700030000    -3.0574960000
   16      C      -1.1190340000    -4.4249870000     3.0787120000
   17      C      -0.8651510000    -2.0366270000     2.3753000000
   18      N      -1.2011760000    -3.0491560000     3.3013740000
   19      O       0.9163550000    -7.3531310000    -2.4983000000
   20      O       1.3454860000    -2.9868540000    -3.6971950000
   21      O      -1.4303790000    -5.2489460000     3.9362240000
   22      O      -1.0077140000    -0.8788290000     2.7628050000
   23      C       1.5995760000    -5.5637990000    -4.3845390000
   24      H       1.6161210000    -6.6640850000    -4.4266360000
   25      H       2.6114580000    -5.1471010000    -4.5504870000
   26      H       0.9310370000    -5.1487850000    -5.1629210000
   27      C      -1.6773820000    -2.5874870000     4.6084540000
   28      H      -1.8961680000    -3.4833290000     5.2126680000
   29      H      -2.5835310000    -1.9649720000     4.4827190000
   30      H      -0.9036740000    -1.9629320000     5.0939880000
   31      C       0.0000000000     0.0000000000     0.0000000000
   32      S       0.6868050000     0.3967600000     1.5805300000
   33      C       2.1050950000     1.2156400000     0.9049110000
   34      C       0.8642010000     0.4991400000    -0.9854000000
   35      C       2.0075140000     1.1593470000    -0.4935280000
   36      H       0.6601360000     0.3812960000    -2.0599340000
   37      H       2.7703880000     1.5998750000    -1.1525930000
   38      H       2.8677450000     1.6560530000     1.5560250000
   39      H      -0.8939590000    -7.3615890000    -0.1658740000
   40      H       0.7942900000    -7.3611920000     0.4494230000
   41      H      -1.0146860000    -1.4788310000    -0.3698800000
 ----------------------------------------------------------------

   11   -1571.6483938104      6.54e-07  Convergence criterion met
 Total energy in the final basis set =    -1571.6483938104
        RIMP2         total energy =     -1576.3287876905 a.u.

                    Orbital Energies (a.u.)
 --------------------------------------------------------------

 Alpha MOs
 -- Occupied --
-91.9784 -20.5560 -20.5444 -20.5383 -20.5374 -15.6285 -15.6190 -11.3967
-11.3850 -11.3795 -11.3765 -11.3058 -11.3047 -11.3034 -11.3018 -11.2947
-11.2944 -11.2822 -11.2734 -11.2666 -11.2635 -11.2630 -11.2620 -11.2597
-11.2583 -11.2504 -11.2499  -8.9790  -6.6594  -6.6581  -6.6578  -1.4259
 -1.4095  -1.3999  -1.3886  -1.2641  -1.2531  -1.2311  -1.1908  -1.1502
 -1.1117  -1.0827  -1.0457  -0.9977  -0.9906  -0.9866  -0.9542  -0.9477
 -0.8953  -0.8867  -0.8761  -0.8581  -0.7898  -0.7797  -0.7757  -0.7658
 -0.7335  -0.7170  -0.7021  -0.6914  -0.6852  -0.6737  -0.6671  -0.6564
 -0.6475  -0.6428  -0.6362  -0.6317  -0.6289  -0.6283  -0.6199  -0.6056
 -0.5930  -0.5747  -0.5677  -0.5638  -0.5587  -0.5531  -0.5505  -0.5468
 -0.5457  -0.5438  -0.5282  -0.5059  -0.5036  -0.4847  -0.4642  -0.4548
 -0.4490  -0.4417  -0.4355  -0.4271  -0.4083  -0.4055  -0.3573  -0.3441
 -0.3345  -0.2718

          Ground-State Mulliken Net Atomic Charges

     Atom                 Charge (a.u.)
  ----------------------------------------
      1 C                    -0.084871
      2 C                    -0.033240
      3 C                    -0.118628
      4 C                    -0.119456
      5 H                     0.197938
      6 C                     0.008862
      7 C                     0.107330
      8 C                    -0.073297
      9 C                    -0.189589
     10 C                    -0.176311
     11 C                     0.212132
     12 H                     0.182109
     13 C                     0.338163
     14 C                     0.346543
     15 N                    -0.088548
     16 C                     0.355492
     17 C                     0.379349
     18 N                    -0.089802
     19 O                    -0.501044
     20 O                    -0.515250
     21 O                    -0.501189
     22 O                    -0.478932
     23 C                    -0.205774
     24 H                     0.139271
     25 H                     0.108211
     26 H                     0.108240
     27 C                    -0.197670
     28 H                     0.134130
     29 H                     0.111695
     30 H                     0.112313
     31 C                    -0.122894
     32 S                     0.077792
     33 C                    -0.159310
     34 C                    -0.097492
     35 C                    -0.241134
     36 H                     0.187391
     37 H                     0.189731
     38 H                     0.210843
     39 H                     0.134977
     40 H                     0.135255
     41 H                     0.216663
  ----------------------------------------
  Sum of atomic charges =     0.000000

                    Cartesian Multipole Moments
 -----------------------------------------------------------------
    Charge (ESU x 10^10)
                 0.0000
    Dipole Moment (Debye)
         X       1.0944      Y       2.6759      Z       0.5430
       Tot       2.9416
    Quadrupole Moments (Debye-Ang)
        XX    -157.6921     XY      10.2566     YY    -192.8313
        XZ      11.6344     YZ      -9.5886     ZZ    -184.4804

 Total job time:  309.64s(wall), 8935.77s(cpu)
        *  Thank you very much for using Q-Chem.  Have a nice day.  *
