 Q-Chem 5.4, Q-Chem, Inc., Pleasanton, CA (2021)
 Q-Chem 5.4.0 for Intel X86 EM64T Linux

User input:
--------------------------------------------------------------
$molecule
0 1
C	0.086486	-6.741404	-0.241938
C	0.532960	-6.155638	-1.468983
C	-0.284733	-5.791452	0.776651
C	0.628455	-4.803786	-1.730681
H	0.833086	-6.821518	-2.294130
C	-0.184300	-4.378638	0.502775
C	0.271086	-3.838032	-0.747353
C	-0.541191	-3.413062	1.484986
C	0.370703	-2.426473	-1.019042
C	-0.446468	-2.059348	1.226525
C	0.000000	-1.478216	0.000000
H	-0.746717	-1.394783	2.052666
C	-0.779832	-6.187987	2.131549
C	-1.030596	-3.798164	2.829295
N	-1.115461	-5.170003	3.057496
C	1.119034	-4.424987	-3.078712
C	0.865151	-2.036627	-2.375300
N	1.201176	-3.049156	-3.301374
O	-0.916355	-7.353131	2.498300
O	-1.345486	-2.986854	3.697195
O	1.430379	-5.248946	-3.936224
O	1.007714	-0.878829	-2.762805
C	-1.599576	-5.563799	4.384539
H	-1.616121	-6.664085	4.426636
H	-2.611458	-5.147101	4.550487
H	-0.931037	-5.148785	5.162921
C	1.677382	-2.587487	-4.608454
H	1.896168	-3.483329	-5.212668
H	2.583531	-1.964972	-4.482719
H	0.903674	-1.962932	-5.093988
C	0.000000	0.000000	0.000000
S	0.396411	0.687007	1.580530
C	1.215245	2.105322	0.904911
C	0.498850	0.864369	-0.985400
C	1.158885	2.007781	-0.493528
H	0.381046	0.660280	-2.059934
H	1.599289	2.770727	-1.152593
H	1.655514	2.868056	1.556025
H	0.893959	-7.361589	0.165874
H	-0.794290	-7.361192	-0.449423
H	1.014686	-1.478831	0.369880
$end

$rem
JOBTYPE		SP
EXCHANGE	HF
CORRELATION	pRIMP2
BASIS		cc-pvtz
METHOD		rimp2
AUX_BASIS	rimp2-cc-pvtz
SOLVENT_METHOD	PCM
PURECART	11111
SYMMETRY	false
MEM_TOTAL	110000
SCF_CONVERGENCE = 6
THRESH=10
GUI = 2
$end

$solvent
dielectric 4.90
$end
--------------------------------------------------------------

             Standard Nuclear Orientation (Angstroms)
    I     Atom           X                Y                Z
 ----------------------------------------------------------------
    1      C       0.0864860000    -6.7414040000    -0.2419380000
    2      C       0.5329600000    -6.1556380000    -1.4689830000
    3      C      -0.2847330000    -5.7914520000     0.7766510000
    4      C       0.6284550000    -4.8037860000    -1.7306810000
    5      H       0.8330860000    -6.8215180000    -2.2941300000
    6      C      -0.1843000000    -4.3786380000     0.5027750000
    7      C       0.2710860000    -3.8380320000    -0.7473530000
    8      C      -0.5411910000    -3.4130620000     1.4849860000
    9      C       0.3707030000    -2.4264730000    -1.0190420000
   10      C      -0.4464680000    -2.0593480000     1.2265250000
   11      C       0.0000000000    -1.4782160000     0.0000000000
   12      H      -0.7467170000    -1.3947830000     2.0526660000
   13      C      -0.7798320000    -6.1879870000     2.1315490000
   14      C      -1.0305960000    -3.7981640000     2.8292950000
   15      N      -1.1154610000    -5.1700030000     3.0574960000
   16      C       1.1190340000    -4.4249870000    -3.0787120000
   17      C       0.8651510000    -2.0366270000    -2.3753000000
   18      N       1.2011760000    -3.0491560000    -3.3013740000
   19      O      -0.9163550000    -7.3531310000     2.4983000000
   20      O      -1.3454860000    -2.9868540000     3.6971950000
   21      O       1.4303790000    -5.2489460000    -3.9362240000
   22      O       1.0077140000    -0.8788290000    -2.7628050000
   23      C      -1.5995760000    -5.5637990000     4.3845390000
   24      H      -1.6161210000    -6.6640850000     4.4266360000
   25      H      -2.6114580000    -5.1471010000     4.5504870000
   26      H      -0.9310370000    -5.1487850000     5.1629210000
   27      C       1.6773820000    -2.5874870000    -4.6084540000
   28      H       1.8961680000    -3.4833290000    -5.2126680000
   29      H       2.5835310000    -1.9649720000    -4.4827190000
   30      H       0.9036740000    -1.9629320000    -5.0939880000
   31      C       0.0000000000     0.0000000000     0.0000000000
   32      S       0.3964110000     0.6870070000     1.5805300000
   33      C       1.2152450000     2.1053220000     0.9049110000
   34      C       0.4988500000     0.8643690000    -0.9854000000
   35      C       1.1588850000     2.0077810000    -0.4935280000
   36      H       0.3810460000     0.6602800000    -2.0599340000
   37      H       1.5992890000     2.7707270000    -1.1525930000
   38      H       1.6555140000     2.8680560000     1.5560250000
   39      H       0.8939590000    -7.3615890000     0.1658740000
   40      H      -0.7942900000    -7.3611920000    -0.4494230000
   41      H       1.0146860000    -1.4788310000     0.3698800000
 ----------------------------------------------------------------

   11   -1571.7125485215      5.70e-07  Convergence criterion met
 Total energy in the final basis set =    -1571.7125485215
        RIMP2         total energy =     -1576.3751696672 a.u.

                    Orbital Energies (a.u.)
 --------------------------------------------------------------

 Alpha MOs
 -- Occupied --
-91.9862 -20.5517 -20.5457 -20.5419 -20.5409 -15.6292 -15.6214 -11.3978
-11.3864 -11.3837 -11.3793 -11.3089 -11.3078 -11.3058 -11.3049 -11.2971
-11.2892 -11.2875 -11.2814 -11.2697 -11.2687 -11.2662 -11.2645 -11.2593
-11.2531 -11.2462 -11.2391  -8.9867  -6.6676  -6.6671  -6.6664  -1.4242
 -1.4124  -1.4002  -1.3916  -1.2648  -1.2557  -1.2314  -1.1883  -1.1500
 -1.1145  -1.0862  -1.0480  -0.9959  -0.9886  -0.9824  -0.9557  -0.9486
 -0.8974  -0.8892  -0.8780  -0.8612  -0.7929  -0.7798  -0.7728  -0.7608
 -0.7402  -0.7234  -0.7027  -0.6886  -0.6799  -0.6750  -0.6677  -0.6580
 -0.6486  -0.6472  -0.6377  -0.6319  -0.6313  -0.6297  -0.6237  -0.6050
 -0.5909  -0.5702  -0.5649  -0.5610  -0.5574  -0.5522  -0.5512  -0.5485
 -0.5478  -0.5425  -0.5181  -0.5139  -0.5082  -0.4833  -0.4735  -0.4620
 -0.4568  -0.4480  -0.4422  -0.4357  -0.4160  -0.4079  -0.3566  -0.3480
 -0.3311  -0.2772

          Ground-State Mulliken Net Atomic Charges

     Atom                 Charge (a.u.)
  ----------------------------------------
      1 C                    -0.084138
      2 C                    -0.031130
      3 C                    -0.109561
      4 C                    -0.122704
      5 H                     0.198809
      6 C                     0.020418
      7 C                     0.126015
      8 C                    -0.065250
      9 C                    -0.197199
     10 C                    -0.154592
     11 C                     0.189942
     12 H                     0.180767
     13 C                     0.343015
     14 C                     0.346631
     15 N                    -0.090130
     16 C                     0.357942
     17 C                     0.388644
     18 N                    -0.087685
     19 O                    -0.493992
     20 O                    -0.506295
     21 O                    -0.500396
     22 O                    -0.477133
     23 C                    -0.204833
     24 H                     0.139402
     25 H                     0.109424
     26 H                     0.109380
     27 C                    -0.199043
     28 H                     0.134610
     29 H                     0.111537
     30 H                     0.112100
     31 C                    -0.011418
     32 S                    -0.006856
     33 C                    -0.227489
     34 C                    -0.208306
     35 C                    -0.197172
     36 H                     0.209814
     37 H                     0.191903
     38 H                     0.213676
     39 H                     0.137746
     40 H                     0.138164
     41 H                     0.215383
  ----------------------------------------
  Sum of atomic charges =     0.000000

                    Cartesian Multipole Moments
 -----------------------------------------------------------------
    Charge (ESU x 10^10)
                 0.0000
    Dipole Moment (Debye)
         X       2.2819      Y       1.6492      Z      -2.1934
       Tot       3.5690
    Quadrupole Moments (Debye-Ang)
        XX    -163.4716     XY       0.4370     YY    -179.5914
        XZ      10.3854     YZ       8.4674     ZZ    -184.9232

 Total job time:  307.45s(wall), 9170.56s(cpu)
        *  Thank you very much for using Q-Chem.  Have a nice day.  *
