 Q-Chem 5.4, Q-Chem, Inc., Pleasanton, CA (2021)
 Q-Chem 5.4.0 for Intel X86 EM64T Linux

User input:
--------------------------------------------------------------
$molecule
0 1
C	-0.253280	-6.741404	-0.043160
C	-1.539213	-6.155638	-0.269777
C	0.814295	-5.791452	0.145543
C	-1.813519	-4.803786	-0.318377
H	-2.403941	-6.821518	-0.422058
C	0.527140	-4.378638	0.094194
C	-0.783072	-3.838032	-0.137191
C	1.556403	-3.413062	0.275104
C	-1.067932	-2.426473	-0.188116
C	1.285420	-2.059348	0.226701
C	0.000000	-1.478216	0.000000
H	2.151147	-1.394783	0.378931
C	2.234582	-6.187987	0.397845
C	2.965273	-3.798164	0.523637
N	3.204744	-5.170003	0.567586
C	-3.226257	-4.424987	-0.567421
C	-2.489446	-2.036627	-0.439541
N	-3.459801	-3.049156	-0.609650
O	2.619468	-7.353131	0.468608
O	3.874668	-2.986854	0.683034
O	-4.124806	-5.248946	-0.725131
O	-2.895819	-0.878829	-0.512648
C	4.595691	-5.563799	0.813908
H	4.640022	-6.664085	0.822891
H	4.934830	-5.147101	1.781600
H	5.246157	-5.148785	0.020360
C	-4.829716	-2.587487	-0.851649
H	-5.462742	-3.483329	-0.962191
H	-4.863242	-1.964972	-1.765865
H	-5.173521	-1.962932	-0.005383
C	0.000000	0.000000	0.000000
S	0.068929	0.790170	1.580530
C	0.211639	2.421655	0.904911
C	0.086813	0.994207	-0.985400
C	0.201782	2.309433	-0.493528
H	0.066299	0.759454	-2.059934
H	0.278488	3.187020	-1.152593
H	0.288312	3.298992	1.556025
H	0.008120	-7.361589	-0.909181
H	-0.304668	-7.361192	0.860264
H	0.188062	-1.478831	-1.063500
$end

$rem
JOBTYPE		SP
EXCHANGE	HF
CORRELATION	pRIMP2
BASIS		cc-pvtz
METHOD		rimp2
AUX_BASIS	rimp2-cc-pvtz
SOLVENT_METHOD	PCM
PURECART	11111
SYMMETRY	false
MEM_TOTAL	110000
SCF_CONVERGENCE = 6
THRESH=10
GUI = 2
$end

$solvent
dielectric 4.90
$end
--------------------------------------------------------------

             Standard Nuclear Orientation (Angstroms)
    I     Atom           X                Y                Z
 ----------------------------------------------------------------
    1      C      -0.2532800000    -6.7414040000    -0.0431600000
    2      C      -1.5392130000    -6.1556380000    -0.2697770000
    3      C       0.8142950000    -5.7914520000     0.1455430000
    4      C      -1.8135190000    -4.8037860000    -0.3183770000
    5      H      -2.4039410000    -6.8215180000    -0.4220580000
    6      C       0.5271400000    -4.3786380000     0.0941940000
    7      C      -0.7830720000    -3.8380320000    -0.1371910000
    8      C       1.5564030000    -3.4130620000     0.2751040000
    9      C      -1.0679320000    -2.4264730000    -0.1881160000
   10      C       1.2854200000    -2.0593480000     0.2267010000
   11      C       0.0000000000    -1.4782160000     0.0000000000
   12      H       2.1511470000    -1.3947830000     0.3789310000
   13      C       2.2345820000    -6.1879870000     0.3978450000
   14      C       2.9652730000    -3.7981640000     0.5236370000
   15      N       3.2047440000    -5.1700030000     0.5675860000
   16      C      -3.2262570000    -4.4249870000    -0.5674210000
   17      C      -2.4894460000    -2.0366270000    -0.4395410000
   18      N      -3.4598010000    -3.0491560000    -0.6096500000
   19      O       2.6194680000    -7.3531310000     0.4686080000
   20      O       3.8746680000    -2.9868540000     0.6830340000
   21      O      -4.1248060000    -5.2489460000    -0.7251310000
   22      O      -2.8958190000    -0.8788290000    -0.5126480000
   23      C       4.5956910000    -5.5637990000     0.8139080000
   24      H       4.6400220000    -6.6640850000     0.8228910000
   25      H       4.9348300000    -5.1471010000     1.7816000000
   26      H       5.2461570000    -5.1487850000     0.0203600000
   27      C      -4.8297160000    -2.5874870000    -0.8516490000
   28      H      -5.4627420000    -3.4833290000    -0.9621910000
   29      H      -4.8632420000    -1.9649720000    -1.7658650000
   30      H      -5.1735210000    -1.9629320000    -0.0053830000
   31      C       0.0000000000     0.0000000000     0.0000000000
   32      S       0.0689290000     0.7901700000     1.5805300000
   33      C       0.2116390000     2.4216550000     0.9049110000
   34      C       0.0868130000     0.9942070000    -0.9854000000
   35      C       0.2017820000     2.3094330000    -0.4935280000
   36      H       0.0662990000     0.7594540000    -2.0599340000
   37      H       0.2784880000     3.1870200000    -1.1525930000
   38      H       0.2883120000     3.2989920000     1.5560250000
   39      H       0.0081200000    -7.3615890000    -0.9091810000
   40      H      -0.3046680000    -7.3611920000     0.8602640000
   41      H       0.1880620000    -1.4788310000    -1.0635000000
 ----------------------------------------------------------------

   11   -1571.7502862859      5.46e-07  Convergence criterion met
 Total energy in the final basis set =    -1571.7502862859
        RIMP2         total energy =     -1576.4039650882 a.u.

                    Orbital Energies (a.u.)
 --------------------------------------------------------------

 Alpha MOs
 -- Occupied --
-91.9883 -20.5522 -20.5444 -20.5421 -20.5409 -15.6268 -15.6215 -11.3933
-11.3851 -11.3839 -11.3795 -11.3095 -11.3084 -11.3052 -11.3050 -11.2977
-11.2964 -11.2899 -11.2814 -11.2697 -11.2681 -11.2654 -11.2627 -11.2595
-11.2570 -11.2529 -11.2509  -8.9880  -6.6688  -6.6683  -6.6678  -1.4193
 -1.4125  -1.3971  -1.3917  -1.2620  -1.2557  -1.2298  -1.1864  -1.1528
 -1.1144  -1.0867  -1.0468  -0.9954  -0.9878  -0.9847  -0.9552  -0.9514
 -0.8966  -0.8878  -0.8768  -0.8601  -0.7953  -0.7772  -0.7709  -0.7618
 -0.7428  -0.7175  -0.7045  -0.6918  -0.6807  -0.6719  -0.6666  -0.6573
 -0.6471  -0.6439  -0.6363  -0.6330  -0.6310  -0.6278  -0.6222  -0.6045
 -0.5850  -0.5755  -0.5667  -0.5614  -0.5570  -0.5513  -0.5506  -0.5481
 -0.5471  -0.5437  -0.5193  -0.5170  -0.5093  -0.4830  -0.4752  -0.4622
 -0.4584  -0.4513  -0.4430  -0.4348  -0.4134  -0.4076  -0.3566  -0.3504
 -0.3279  -0.2904

          Ground-State Mulliken Net Atomic Charges

     Atom                 Charge (a.u.)
  ----------------------------------------
      1 C                    -0.084740
      2 C                    -0.030705
      3 C                    -0.110320
      4 C                    -0.123049
      5 H                     0.198698
      6 C                     0.013520
      7 C                     0.120894
      8 C                    -0.088999
      9 C                    -0.183219
     10 C                    -0.110038
     11 C                     0.187726
     12 H                     0.196464
     13 C                     0.343773
     14 C                     0.348658
     15 N                    -0.090379
     16 C                     0.357778
     17 C                     0.348006
     18 N                    -0.092420
     19 O                    -0.493707
     20 O                    -0.506769
     21 O                    -0.501672
     22 O                    -0.471442
     23 C                    -0.204682
     24 H                     0.139517
     25 H                     0.109401
     26 H                     0.109036
     27 C                    -0.196890
     28 H                     0.133108
     29 H                     0.111054
     30 H                     0.112245
     31 C                    -0.013020
     32 S                     0.014349
     33 C                    -0.210473
     34 C                    -0.185250
     35 C                    -0.207413
     36 H                     0.183841
     37 H                     0.191945
     38 H                     0.210523
     39 H                     0.137612
     40 H                     0.137881
     41 H                     0.199158
  ----------------------------------------
  Sum of atomic charges =     0.000000

                    Cartesian Multipole Moments
 -----------------------------------------------------------------
    Charge (ESU x 10^10)
                 0.0000
    Dipole Moment (Debye)
         X      -0.5206      Y       2.1480      Z      -1.9997
       Tot       2.9805
    Quadrupole Moments (Debye-Ang)
        XX    -194.8824     XY       9.1355     YY    -177.1907
        XZ      -5.6180     YZ       3.3752     ZZ    -157.3167

 Total job time:  299.90s(wall), 8681.53s(cpu)
        *  Thank you very much for using Q-Chem.  Have a nice day.  *
