 Q-Chem 5.4, Q-Chem, Inc., Pleasanton, CA (2021)
 Q-Chem 5.4.0 for Intel X86 EM64T Linux

User input:
--------------------------------------------------------------
$molecule
0 1
C	0.089263	-6.741404	0.240927
C	0.535973	-6.155638	1.467886
C	-0.281103	-5.791452	-0.777972
C	0.631036	-4.803786	1.729742
H	0.836458	-6.821518	2.292903
C	-0.181995	-4.378638	-0.503614
C	0.272725	-3.838032	0.746756
C	-0.539954	-3.413062	-1.485437
C	0.371053	-2.426473	1.018915
C	-0.446381	-2.059348	-1.226557
C	0.000000	-1.478216	0.000000
H	-0.747410	-1.394783	-2.052413
C	-0.772747	-6.187987	-2.134128
C	-1.029154	-3.798164	-2.829820
N	-1.110828	-5.170003	-3.059182
C	1.121728	-4.424987	3.077731
C	0.864069	-2.036627	2.375694
N	1.201928	-3.049156	3.301101
O	-0.903908	-7.353131	-2.502830
O	-1.345809	-2.986854	-3.697078
O	1.434422	-5.248946	3.934752
O	1.003943	-0.878829	2.764177
C	-1.592981	-5.563799	-4.386939
H	-1.607367	-6.664085	-4.429822
H	-0.924504	-5.147101	-5.164489
H	-2.605446	-5.148785	-4.553486
C	1.677308	-2.587487	4.608481
H	1.898089	-3.483329	5.211969
H	0.902337	-1.964972	5.094624
H	2.582098	-1.962932	4.483092
C	0.000000	0.000000	0.000000
S	0.068929	0.790170	1.580530
C	0.211639	2.421655	0.904911
C	0.086813	0.994207	-0.985400
C	0.201782	2.309433	-0.493528
H	0.066299	0.759454	-2.059934
H	0.278488	3.187020	-1.152593
H	0.288312	3.298992	1.556025
H	-0.791434	-7.361589	0.447559
H	0.897345	-7.361192	-0.166282
H	-1.015049	-1.478831	0.368883
$end

$rem
JOBTYPE		SP
EXCHANGE	HF
CORRELATION	pRIMP2
BASIS		cc-pvtz
METHOD		rimp2
AUX_BASIS	rimp2-cc-pvtz
SOLVENT_METHOD	PCM
PURECART	11111
SYMMETRY	false
MEM_TOTAL	110000
SCF_CONVERGENCE = 6
THRESH=10
GUI = 2
$end

$solvent
dielectric 4.90
$end
--------------------------------------------------------------

             Standard Nuclear Orientation (Angstroms)
    I     Atom           X                Y                Z
 ----------------------------------------------------------------
    1      C       0.0892630000    -6.7414040000     0.2409270000
    2      C       0.5359730000    -6.1556380000     1.4678860000
    3      C      -0.2811030000    -5.7914520000    -0.7779720000
    4      C       0.6310360000    -4.8037860000     1.7297420000
    5      H       0.8364580000    -6.8215180000     2.2929030000
    6      C      -0.1819950000    -4.3786380000    -0.5036140000
    7      C       0.2727250000    -3.8380320000     0.7467560000
    8      C      -0.5399540000    -3.4130620000    -1.4854370000
    9      C       0.3710530000    -2.4264730000     1.0189150000
   10      C      -0.4463810000    -2.0593480000    -1.2265570000
   11      C       0.0000000000    -1.4782160000     0.0000000000
   12      H      -0.7474100000    -1.3947830000    -2.0524130000
   13      C      -0.7727470000    -6.1879870000    -2.1341280000
   14      C      -1.0291540000    -3.7981640000    -2.8298200000
   15      N      -1.1108280000    -5.1700030000    -3.0591820000
   16      C       1.1217280000    -4.4249870000     3.0777310000
   17      C       0.8640690000    -2.0366270000     2.3756940000
   18      N       1.2019280000    -3.0491560000     3.3011010000
   19      O      -0.9039080000    -7.3531310000    -2.5028300000
   20      O      -1.3458090000    -2.9868540000    -3.6970780000
   21      O       1.4344220000    -5.2489460000     3.9347520000
   22      O       1.0039430000    -0.8788290000     2.7641770000
   23      C      -1.5929810000    -5.5637990000    -4.3869390000
   24      H      -1.6073670000    -6.6640850000    -4.4298220000
   25      H      -0.9245040000    -5.1471010000    -5.1644890000
   26      H      -2.6054460000    -5.1487850000    -4.5534860000
   27      C       1.6773080000    -2.5874870000     4.6084810000
   28      H       1.8980890000    -3.4833290000     5.2119690000
   29      H       0.9023370000    -1.9649720000     5.0946240000
   30      H       2.5820980000    -1.9629320000     4.4830920000
   31      C       0.0000000000     0.0000000000     0.0000000000
   32      S       0.0689290000     0.7901700000     1.5805300000
   33      C       0.2116390000     2.4216550000     0.9049110000
   34      C       0.0868130000     0.9942070000    -0.9854000000
   35      C       0.2017820000     2.3094330000    -0.4935280000
   36      H       0.0662990000     0.7594540000    -2.0599340000
   37      H       0.2784880000     3.1870200000    -1.1525930000
   38      H       0.2883120000     3.2989920000     1.5560250000
   39      H      -0.7914340000    -7.3615890000     0.4475590000
   40      H       0.8973450000    -7.3611920000    -0.1662820000
   41      H      -1.0150490000    -1.4788310000     0.3688830000
 ----------------------------------------------------------------

   11   -1571.7031487419      5.97e-07  Convergence criterion met
 Total energy in the final basis set =    -1571.7031487419
        RIMP2         total energy =     -1576.3704703014 a.u.

                    Orbital Energies (a.u.)
 --------------------------------------------------------------

 Alpha MOs
 -- Occupied --
-91.9723 -20.5541 -20.5465 -20.5428 -20.5416 -15.6303 -15.6223 -11.3995
-11.3872 -11.3847 -11.3802 -11.3125 -11.3098 -11.3084 -11.3062 -11.2992
-11.2929 -11.2912 -11.2711 -11.2702 -11.2666 -11.2647 -11.2612 -11.2600
-11.2544 -11.2456 -11.2367  -8.9725  -6.6530  -6.6519  -6.6512  -1.4294
 -1.4132  -1.4024  -1.3924  -1.2669  -1.2566  -1.2315  -1.1853  -1.1462
 -1.1159  -1.0867  -1.0492  -0.9943  -0.9894  -0.9752  -0.9565  -0.9480
 -0.8981  -0.8908  -0.8796  -0.8629  -0.7921  -0.7807  -0.7754  -0.7598
 -0.7308  -0.7237  -0.7011  -0.6903  -0.6882  -0.6738  -0.6690  -0.6590
 -0.6510  -0.6448  -0.6386  -0.6333  -0.6326  -0.6319  -0.6239  -0.6061
 -0.5891  -0.5726  -0.5656  -0.5626  -0.5566  -0.5533  -0.5530  -0.5494
 -0.5485  -0.5455  -0.5192  -0.5143  -0.5121  -0.4864  -0.4809  -0.4637
 -0.4561  -0.4450  -0.4380  -0.4219  -0.4087  -0.4025  -0.3552  -0.3302
 -0.3262  -0.2784

          Ground-State Mulliken Net Atomic Charges

     Atom                 Charge (a.u.)
  ----------------------------------------
      1 C                    -0.084630
      2 C                    -0.028068
      3 C                    -0.107318
      4 C                    -0.123513
      5 H                     0.199894
      6 C                     0.024824
      7 C                     0.123121
      8 C                    -0.109174
      9 C                    -0.208657
     10 C                    -0.132280
     11 C                     0.243096
     12 H                     0.194493
     13 C                     0.343108
     14 C                     0.351665
     15 N                    -0.090342
     16 C                     0.358640
     17 C                     0.390749
     18 N                    -0.090071
     19 O                    -0.493426
     20 O                    -0.507179
     21 O                    -0.499743
     22 O                    -0.453462
     23 C                    -0.204645
     24 H                     0.139626
     25 H                     0.109553
     26 H                     0.109341
     27 C                    -0.198680
     28 H                     0.134665
     29 H                     0.112559
     30 H                     0.112957
     31 C                    -0.083555
     32 S                     0.062083
     33 C                    -0.241753
     34 C                    -0.163787
     35 C                    -0.246401
     36 H                     0.181507
     37 H                     0.181171
     38 H                     0.204017
     39 H                     0.138777
     40 H                     0.139037
     41 H                     0.211801
  ----------------------------------------
  Sum of atomic charges =     0.000000

                    Cartesian Multipole Moments
 -----------------------------------------------------------------
    Charge (ESU x 10^10)
                 0.0000
    Dipole Moment (Debye)
         X       0.0270      Y       0.3928      Z       1.3501
       Tot       1.4064
    Quadrupole Moments (Debye-Ang)
        XX    -166.1813     XY      -1.1480     YY    -177.3479
        XZ      -9.3993     YZ      -8.9921     ZZ    -183.0238

 Total job time:  315.44s(wall), 9064.92s(cpu)
        *  Thank you very much for using Q-Chem.  Have a nice day.  *
