 Q-Chem 5.4, Q-Chem, Inc., Pleasanton, CA (2021)
 Q-Chem 5.4.0 for Intel X86 EM64T Linux

User input:
--------------------------------------------------------------
$molecule
0 1
C	0.129743	-6.741404	0.221766
C	0.782726	-6.155638	1.352515
C	-0.411926	-5.791452	-0.717339
C	0.921816	-4.803786	1.593885
H	1.221908	-6.821518	2.112819
C	-0.266682	-4.378638	-0.464360
C	0.398255	-3.838032	0.688053
C	-0.789694	-3.413062	-1.369108
C	0.542349	-2.426473	0.939002
C	-0.652589	-2.059348	-1.130409
C	0.000000	-1.478216	0.000000
H	-1.092453	-1.394783	-1.891446
C	-1.131595	-6.187987	-1.967519
C	-1.504912	-3.798164	-2.608118
N	-1.625174	-5.170003	-2.819813
C	1.639129	-4.424987	2.836188
C	1.263477	-2.036627	2.189558
N	1.756898	-3.049156	3.042237
O	-1.324787	-7.353131	-2.307845
O	-1.967354	-2.986854	-3.407213
O	2.095892	-5.248946	3.625890
O	1.468685	-0.878829	2.547850
C	-2.330564	-5.563799	-4.043674
H	-2.352178	-6.664085	-4.083407
H	-1.807263	-5.147101	-4.925490
H	-3.356568	-5.148785	-4.031877
C	2.452080	-2.587487	4.247206
H	2.774302	-3.483329	4.803187
H	1.773301	-1.964972	4.860536
H	3.321351	-1.962932	3.966607
C	0.000000	0.000000	0.000000
S	0.396411	0.687007	1.580530
C	1.215245	2.105322	0.904911
C	0.498850	0.864369	-0.985400
C	1.158885	2.007781	-0.493528
H	0.381046	0.660280	-2.059934
H	1.599289	2.770727	-1.152593
H	1.655514	2.868056	1.556025
H	-0.701693	-7.361589	0.578191
H	0.854838	-7.361192	-0.319578
H	-0.935572	-1.478831	0.539540
$end

$rem
JOBTYPE		SP
EXCHANGE	HF
CORRELATION	pRIMP2
BASIS		cc-pvtz
METHOD		rimp2
AUX_BASIS	rimp2-cc-pvtz
SOLVENT_METHOD	PCM
PURECART	11111
SYMMETRY	false
MEM_TOTAL	110000
SCF_CONVERGENCE = 6
THRESH=10
GUI = 2
$end

$solvent
dielectric 4.90
$end
--------------------------------------------------------------

             Standard Nuclear Orientation (Angstroms)
    I     Atom           X                Y                Z
 ----------------------------------------------------------------
    1      C       0.1297430000    -6.7414040000     0.2217660000
    2      C       0.7827260000    -6.1556380000     1.3525150000
    3      C      -0.4119260000    -5.7914520000    -0.7173390000
    4      C       0.9218160000    -4.8037860000     1.5938850000
    5      H       1.2219080000    -6.8215180000     2.1128190000
    6      C      -0.2666820000    -4.3786380000    -0.4643600000
    7      C       0.3982550000    -3.8380320000     0.6880530000
    8      C      -0.7896940000    -3.4130620000    -1.3691080000
    9      C       0.5423490000    -2.4264730000     0.9390020000
   10      C      -0.6525890000    -2.0593480000    -1.1304090000
   11      C       0.0000000000    -1.4782160000     0.0000000000
   12      H      -1.0924530000    -1.3947830000    -1.8914460000
   13      C      -1.1315950000    -6.1879870000    -1.9675190000
   14      C      -1.5049120000    -3.7981640000    -2.6081180000
   15      N      -1.6251740000    -5.1700030000    -2.8198130000
   16      C       1.6391290000    -4.4249870000     2.8361880000
   17      C       1.2634770000    -2.0366270000     2.1895580000
   18      N       1.7568980000    -3.0491560000     3.0422370000
   19      O      -1.3247870000    -7.3531310000    -2.3078450000
   20      O      -1.9673540000    -2.9868540000    -3.4072130000
   21      O       2.0958920000    -5.2489460000     3.6258900000
   22      O       1.4686850000    -0.8788290000     2.5478500000
   23      C      -2.3305640000    -5.5637990000    -4.0436740000
   24      H      -2.3521780000    -6.6640850000    -4.0834070000
   25      H      -1.8072630000    -5.1471010000    -4.9254900000
   26      H      -3.3565680000    -5.1487850000    -4.0318770000
   27      C       2.4520800000    -2.5874870000     4.2472060000
   28      H       2.7743020000    -3.4833290000     4.8031870000
   29      H       1.7733010000    -1.9649720000     4.8605360000
   30      H       3.3213510000    -1.9629320000     3.9666070000
   31      C       0.0000000000     0.0000000000     0.0000000000
   32      S       0.3964110000     0.6870070000     1.5805300000
   33      C       1.2152450000     2.1053220000     0.9049110000
   34      C       0.4988500000     0.8643690000    -0.9854000000
   35      C       1.1588850000     2.0077810000    -0.4935280000
   36      H       0.3810460000     0.6602800000    -2.0599340000
   37      H       1.5992890000     2.7707270000    -1.1525930000
   38      H       1.6555140000     2.8680560000     1.5560250000
   39      H      -0.7016930000    -7.3615890000     0.5781910000
   40      H       0.8548380000    -7.3611920000    -0.3195780000
   41      H      -0.9355720000    -1.4788310000     0.5395400000
 ----------------------------------------------------------------

   11   -1571.6547283971      6.58e-07  Convergence criterion met
 Total energy in the final basis set =    -1571.6547283971
        RIMP2         total energy =     -1576.3364179798 a.u.

                    Orbital Energies (a.u.)
 --------------------------------------------------------------

 Alpha MOs
 -- Occupied --
-91.9797 -20.5545 -20.5467 -20.5411 -20.5400 -15.6314 -15.6211 -11.4019
-11.3874 -11.3832 -11.3786 -11.3114 -11.3077 -11.3075 -11.3051 -11.2989
-11.2855 -11.2752 -11.2705 -11.2697 -11.2686 -11.2655 -11.2637 -11.2593
-11.2535 -11.2430 -11.2327  -8.9799  -6.6602  -6.6593  -6.6584  -1.4344
 -1.4118  -1.4037  -1.3910  -1.2685  -1.2554  -1.2295  -1.1838  -1.1454
 -1.1146  -1.0847  -1.0481  -0.9938  -0.9890  -0.9768  -0.9562  -0.9472
 -0.8984  -0.8887  -0.8792  -0.8623  -0.7894  -0.7813  -0.7753  -0.7601
 -0.7296  -0.7263  -0.7015  -0.6906  -0.6869  -0.6720  -0.6680  -0.6586
 -0.6513  -0.6433  -0.6380  -0.6324  -0.6317  -0.6301  -0.6249  -0.6049
 -0.5882  -0.5715  -0.5662  -0.5631  -0.5571  -0.5536  -0.5534  -0.5489
 -0.5478  -0.5449  -0.5194  -0.5145  -0.5107  -0.4861  -0.4731  -0.4621
 -0.4550  -0.4436  -0.4387  -0.4264  -0.4088  -0.4073  -0.3541  -0.3263
 -0.2986  -0.2780

          Ground-State Mulliken Net Atomic Charges

     Atom                 Charge (a.u.)
  ----------------------------------------
      1 C                    -0.084584
      2 C                    -0.026621
      3 C                    -0.113647
      4 C                    -0.122939
      5 H                     0.199566
      6 C                     0.018778
      7 C                     0.125079
      8 C                    -0.098986
      9 C                    -0.243012
     10 C                    -0.141510
     11 C                     0.215419
     12 H                     0.194116
     13 C                     0.342563
     14 C                     0.347559
     15 N                    -0.089581
     16 C                     0.357831
     17 C                     0.422070
     18 N                    -0.088486
     19 O                    -0.495743
     20 O                    -0.508336
     21 O                    -0.499421
     22 O                    -0.437610
     23 C                    -0.204930
     24 H                     0.139396
     25 H                     0.109114
     26 H                     0.109089
     27 C                    -0.199139
     28 H                     0.135116
     29 H                     0.112651
     30 H                     0.112884
     31 C                    -0.097542
     32 S                     0.086410
     33 C                    -0.220318
     34 C                    -0.163555
     35 C                    -0.254554
     36 H                     0.184645
     37 H                     0.182334
     38 H                     0.205569
     39 H                     0.138072
     40 H                     0.138412
     41 H                     0.213840
  ----------------------------------------
  Sum of atomic charges =     0.000000

                    Cartesian Multipole Moments
 -----------------------------------------------------------------
    Charge (ESU x 10^10)
                 0.0000
    Dipole Moment (Debye)
         X       1.4107      Y       0.6190      Z       2.1652
       Tot       2.6574
    Quadrupole Moments (Debye-Ang)
        XX    -167.8387     XY      -0.0573     YY    -181.7340
        XZ     -11.5779     YZ      -9.0903     ZZ    -178.0943

 Total job time:  306.03s(wall), 9096.46s(cpu)
        *  Thank you very much for using Q-Chem.  Have a nice day.  *
