 Q-Chem 5.4, Q-Chem, Inc., Pleasanton, CA (2021)
 Q-Chem 5.4.0 for Intel X86 EM64T Linux

User input:
--------------------------------------------------------------
$molecule
0 1
C	-0.089263	-6.741404	-0.240927
C	-0.535973	-6.155638	-1.467886
C	0.281103	-5.791452	0.777972
C	-0.631036	-4.803786	-1.729742
H	-0.836458	-6.821518	-2.292903
C	0.181995	-4.378638	0.503614
C	-0.272725	-3.838032	-0.746756
C	0.539954	-3.413062	1.485437
C	-0.371053	-2.426473	-1.018915
C	0.446381	-2.059348	1.226557
C	-0.000000	-1.478216	-0.000000
H	0.747410	-1.394783	2.052413
C	0.772747	-6.187987	2.134128
C	1.029154	-3.798164	2.829820
N	1.110828	-5.170003	3.059182
C	-1.121728	-4.424987	-3.077731
C	-0.864069	-2.036627	-2.375694
N	-1.201928	-3.049156	-3.301101
O	0.903908	-7.353131	2.502830
O	1.345809	-2.986854	3.697078
O	-1.434422	-5.248946	-3.934752
O	-1.003943	-0.878829	-2.764177
C	1.592981	-5.563799	4.386939
H	1.607367	-6.664085	4.429822
H	0.924504	-5.147101	5.164489
H	2.605446	-5.148785	4.553486
C	-1.677308	-2.587487	-4.608481
H	-1.898089	-3.483329	-5.211969
H	-0.902337	-1.964972	-5.094624
H	-2.582098	-1.962932	-4.483092
C	0.000000	0.000000	0.000000
S	-0.000201	0.793171	1.580530
C	-0.000228	2.430885	0.904911
C	-0.000168	0.997990	-0.985400
C	-0.000267	2.318231	-0.493528
H	-0.000145	0.762343	-2.059934
H	-0.000339	3.199164	-1.152593
H	-0.000311	3.311566	1.556025
H	0.791434	-7.361589	-0.447559
H	-0.897345	-7.361192	0.166282
H	1.015049	-1.478831	-0.368883
$end

$rem
JOBTYPE		SP
EXCHANGE	HF
CORRELATION	pRIMP2
BASIS		cc-pvtz
METHOD		rimp2
AUX_BASIS	rimp2-cc-pvtz
SOLVENT_METHOD	PCM
PURECART	11111
SYMMETRY	false
MEM_TOTAL	110000
SCF_CONVERGENCE = 6
THRESH=10
GUI = 2
$end

$solvent
dielectric 4.90
$end
--------------------------------------------------------------

             Standard Nuclear Orientation (Angstroms)
    I     Atom           X                Y                Z
 ----------------------------------------------------------------
    1      C      -0.0892630000    -6.7414040000    -0.2409270000
    2      C      -0.5359730000    -6.1556380000    -1.4678860000
    3      C       0.2811030000    -5.7914520000     0.7779720000
    4      C      -0.6310360000    -4.8037860000    -1.7297420000
    5      H      -0.8364580000    -6.8215180000    -2.2929030000
    6      C       0.1819950000    -4.3786380000     0.5036140000
    7      C      -0.2727250000    -3.8380320000    -0.7467560000
    8      C       0.5399540000    -3.4130620000     1.4854370000
    9      C      -0.3710530000    -2.4264730000    -1.0189150000
   10      C       0.4463810000    -2.0593480000     1.2265570000
   11      C       0.0000000000    -1.4782160000     0.0000000000
   12      H       0.7474100000    -1.3947830000     2.0524130000
   13      C       0.7727470000    -6.1879870000     2.1341280000
   14      C       1.0291540000    -3.7981640000     2.8298200000
   15      N       1.1108280000    -5.1700030000     3.0591820000
   16      C      -1.1217280000    -4.4249870000    -3.0777310000
   17      C      -0.8640690000    -2.0366270000    -2.3756940000
   18      N      -1.2019280000    -3.0491560000    -3.3011010000
   19      O       0.9039080000    -7.3531310000     2.5028300000
   20      O       1.3458090000    -2.9868540000     3.6970780000
   21      O      -1.4344220000    -5.2489460000    -3.9347520000
   22      O      -1.0039430000    -0.8788290000    -2.7641770000
   23      C       1.5929810000    -5.5637990000     4.3869390000
   24      H       1.6073670000    -6.6640850000     4.4298220000
   25      H       0.9245040000    -5.1471010000     5.1644890000
   26      H       2.6054460000    -5.1487850000     4.5534860000
   27      C      -1.6773080000    -2.5874870000    -4.6084810000
   28      H      -1.8980890000    -3.4833290000    -5.2119690000
   29      H      -0.9023370000    -1.9649720000    -5.0946240000
   30      H      -2.5820980000    -1.9629320000    -4.4830920000
   31      C       0.0000000000     0.0000000000     0.0000000000
   32      S      -0.0002010000     0.7931710000     1.5805300000
   33      C      -0.0002280000     2.4308850000     0.9049110000
   34      C      -0.0001680000     0.9979900000    -0.9854000000
   35      C      -0.0002670000     2.3182310000    -0.4935280000
   36      H      -0.0001450000     0.7623430000    -2.0599340000
   37      H      -0.0003390000     3.1991640000    -1.1525930000
   38      H      -0.0003110000     3.3115660000     1.5560250000
   39      H       0.7914340000    -7.3615890000    -0.4475590000
   40      H      -0.8973450000    -7.3611920000     0.1662820000
   41      H       1.0150490000    -1.4788310000    -0.3688830000
 ----------------------------------------------------------------

   11   -1571.7379418438      5.87e-07  Convergence criterion met
 Total energy in the final basis set =    -1571.7379418438
        RIMP2         total energy =     -1576.3961034931 a.u.

                    Orbital Energies (a.u.)
 --------------------------------------------------------------

 Alpha MOs
 -- Occupied --
-91.9901 -20.5531 -20.5456 -20.5423 -20.5414 -15.6286 -15.6219 -11.3965
-11.3863 -11.3842 -11.3800 -11.3100 -11.3099 -11.3067 -11.3054 -11.2982
-11.2976 -11.2923 -11.2751 -11.2703 -11.2690 -11.2673 -11.2641 -11.2596
-11.2535 -11.2475 -11.2407  -8.9899  -6.6708  -6.6703  -6.6696  -1.4225
 -1.4129  -1.3993  -1.3920  -1.2640  -1.2562  -1.2317  -1.1873  -1.1508
 -1.1154  -1.0876  -1.0486  -0.9954  -0.9887  -0.9823  -0.9559  -0.9499
 -0.8980  -0.8905  -0.8782  -0.8614  -0.7957  -0.7804  -0.7725  -0.7584
 -0.7400  -0.7181  -0.7022  -0.6902  -0.6836  -0.6731  -0.6683  -0.6581
 -0.6487  -0.6465  -0.6386  -0.6322  -0.6316  -0.6292  -0.6239  -0.6052
 -0.5915  -0.5721  -0.5642  -0.5602  -0.5583  -0.5524  -0.5510  -0.5495
 -0.5483  -0.5432  -0.5170  -0.5148  -0.5127  -0.4859  -0.4752  -0.4616
 -0.4582  -0.4512  -0.4434  -0.4360  -0.4151  -0.4083  -0.3563  -0.3503
 -0.3314  -0.2790

          Ground-State Mulliken Net Atomic Charges

     Atom                 Charge (a.u.)
  ----------------------------------------
      1 C                    -0.084964
      2 C                    -0.029860
      3 C                    -0.107050
      4 C                    -0.125560
      5 H                     0.199290
      6 C                     0.020714
      7 C                     0.110342
      8 C                    -0.067639
      9 C                    -0.195348
     10 C                    -0.151991
     11 C                     0.220765
     12 H                     0.178044
     13 C                     0.342769
     14 C                     0.351614
     15 N                    -0.090206
     16 C                     0.358750
     17 C                     0.378342
     18 N                    -0.088588
     19 O                    -0.493597
     20 O                    -0.506433
     21 O                    -0.500836
     22 O                    -0.480336
     23 C                    -0.204676
     24 H                     0.139502
     25 H                     0.109726
     26 H                     0.109300
     27 C                    -0.198103
     28 H                     0.134159
     29 H                     0.111236
     30 H                     0.112350
     31 C                    -0.051562
     32 S                     0.004244
     33 C                    -0.225483
     34 C                    -0.149366
     35 C                    -0.227484
     36 H                     0.203242
     37 H                     0.189149
     38 H                     0.212873
     39 H                     0.138064
     40 H                     0.138331
     41 H                     0.216279
  ----------------------------------------
  Sum of atomic charges =     0.000000

                    Cartesian Multipole Moments
 -----------------------------------------------------------------
    Charge (ESU x 10^10)
                 0.0000
    Dipole Moment (Debye)
         X       0.4743      Y       1.5739      Z      -2.4149
       Tot       2.9213
    Quadrupole Moments (Debye-Ang)
        XX    -166.3551     XY       1.5885     YY    -176.5194
        XZ     -10.4945     YZ       9.1703     ZZ    -185.0916

 Total job time:  313.66s(wall), 9257.02s(cpu)
        *  Thank you very much for using Q-Chem.  Have a nice day.  *
