 Q-Chem 5.4, Q-Chem, Inc., Pleasanton, CA (2021)
 Q-Chem 5.4.0 for Intel X86 EM64T Linux

User input:
--------------------------------------------------------------
$molecule
0 1
C	0.164018	-6.741404	-0.197767
C	1.003240	-6.155638	-1.198109
C	-0.533192	-5.791452	0.632428
C	1.182482	-4.803786	-1.411364
H	1.567483	-6.821518	-1.870845
C	-0.345145	-4.378638	0.409419
C	0.510347	-3.838032	-0.609565
C	-1.016449	-3.413062	1.210332
C	0.696879	-2.426473	-0.830799
C	-0.839039	-2.059348	0.999856
C	-0.000000	-1.478216	-0.000000
H	-1.403737	-1.394783	1.673483
C	-1.461835	-6.187987	1.736282
C	-1.936119	-3.798164	2.306183
N	-2.093916	-5.170003	2.491597
C	2.104529	-4.424987	-2.510310
C	1.625377	-2.036627	-1.936153
N	2.257873	-3.049156	-2.691451
O	-1.715561	-7.353131	2.034222
O	-2.528858	-2.986854	3.014044
O	2.690385	-5.248946	-3.209622
O	1.891876	-0.878829	-2.251529
C	-3.002711	-5.563799	3.573032
H	-3.032655	-6.664085	3.606932
H	-4.010326	-5.147101	3.382888
H	-2.640711	-5.148785	4.533125
C	3.152408	-2.587487	-3.756832
H	3.564653	-3.483329	-4.249778
H	3.960905	-1.964972	-3.328759
H	2.591422	-1.962932	-4.477709
C	0.000000	0.000000	0.000000
S	0.686805	0.396760	1.580530
C	2.105095	1.215640	0.904911
C	0.864201	0.499140	-0.985400
C	2.007514	1.159347	-0.493528
H	0.660136	0.381296	-2.059934
H	2.770388	1.599875	-1.152593
H	2.867745	1.656053	1.556025
H	0.783314	-7.361589	0.461623
H	-0.592677	-7.361192	-0.693983
H	0.826987	-1.478831	0.694617
$end

$rem
JOBTYPE		SP
EXCHANGE	HF
CORRELATION	pRIMP2
BASIS		cc-pvtz
METHOD		rimp2
AUX_BASIS	rimp2-cc-pvtz
SOLVENT_METHOD	PCM
PURECART	11111
SYMMETRY	false
MEM_TOTAL	110000
SCF_CONVERGENCE = 6
THRESH=10
GUI = 2
$end

$solvent
dielectric 4.90
$end
--------------------------------------------------------------

             Standard Nuclear Orientation (Angstroms)
    I     Atom           X                Y                Z
 ----------------------------------------------------------------
    1      C       0.1640180000    -6.7414040000    -0.1977670000
    2      C       1.0032400000    -6.1556380000    -1.1981090000
    3      C      -0.5331920000    -5.7914520000     0.6324280000
    4      C       1.1824820000    -4.8037860000    -1.4113640000
    5      H       1.5674830000    -6.8215180000    -1.8708450000
    6      C      -0.3451450000    -4.3786380000     0.4094190000
    7      C       0.5103470000    -3.8380320000    -0.6095650000
    8      C      -1.0164490000    -3.4130620000     1.2103320000
    9      C       0.6968790000    -2.4264730000    -0.8307990000
   10      C      -0.8390390000    -2.0593480000     0.9998560000
   11      C       0.0000000000    -1.4782160000     0.0000000000
   12      H      -1.4037370000    -1.3947830000     1.6734830000
   13      C      -1.4618350000    -6.1879870000     1.7362820000
   14      C      -1.9361190000    -3.7981640000     2.3061830000
   15      N      -2.0939160000    -5.1700030000     2.4915970000
   16      C       2.1045290000    -4.4249870000    -2.5103100000
   17      C       1.6253770000    -2.0366270000    -1.9361530000
   18      N       2.2578730000    -3.0491560000    -2.6914510000
   19      O      -1.7155610000    -7.3531310000     2.0342220000
   20      O      -2.5288580000    -2.9868540000     3.0140440000
   21      O       2.6903850000    -5.2489460000    -3.2096220000
   22      O       1.8918760000    -0.8788290000    -2.2515290000
   23      C      -3.0027110000    -5.5637990000     3.5730320000
   24      H      -3.0326550000    -6.6640850000     3.6069320000
   25      H      -4.0103260000    -5.1471010000     3.3828880000
   26      H      -2.6407110000    -5.1487850000     4.5331250000
   27      C       3.1524080000    -2.5874870000    -3.7568320000
   28      H       3.5646530000    -3.4833290000    -4.2497780000
   29      H       3.9609050000    -1.9649720000    -3.3287590000
   30      H       2.5914220000    -1.9629320000    -4.4777090000
   31      C       0.0000000000     0.0000000000     0.0000000000
   32      S       0.6868050000     0.3967600000     1.5805300000
   33      C       2.1050950000     1.2156400000     0.9049110000
   34      C       0.8642010000     0.4991400000    -0.9854000000
   35      C       2.0075140000     1.1593470000    -0.4935280000
   36      H       0.6601360000     0.3812960000    -2.0599340000
   37      H       2.7703880000     1.5998750000    -1.1525930000
   38      H       2.8677450000     1.6560530000     1.5560250000
   39      H       0.7833140000    -7.3615890000     0.4616230000
   40      H      -0.5926770000    -7.3611920000    -0.6939830000
   41      H       0.8269870000    -1.4788310000     0.6946170000
 ----------------------------------------------------------------

   11   -1571.6320795756      6.55e-07  Convergence criterion met
 Total energy in the final basis set =    -1571.6320795756
        RIMP2         total energy =     -1576.3069363216 a.u.

                    Orbital Energies (a.u.)
 --------------------------------------------------------------

 Alpha MOs
 -- Occupied --
-91.9753 -20.5566 -20.5460 -20.5384 -20.5377 -15.6315 -15.6187 -11.4015
-11.3866 -11.3804 -11.3759 -11.3057 -11.3046 -11.3040 -11.3023 -11.2998
-11.2958 -11.2759 -11.2716 -11.2675 -11.2660 -11.2642 -11.2605 -11.2578
-11.2511 -11.2510 -11.2477  -8.9778  -6.6585  -6.6577  -6.6573  -1.4328
 -1.4095  -1.4029  -1.3886  -1.2678  -1.2531  -1.2319  -1.1925  -1.1503
 -1.1115  -1.0829  -1.0452  -0.9979  -0.9929  -0.9881  -0.9549  -0.9478
 -0.8969  -0.8827  -0.8769  -0.8589  -0.7913  -0.7802  -0.7721  -0.7697
 -0.7397  -0.7326  -0.7032  -0.6861  -0.6781  -0.6744  -0.6663  -0.6570
 -0.6473  -0.6469  -0.6356  -0.6316  -0.6295  -0.6284  -0.6219  -0.6021
 -0.5893  -0.5808  -0.5674  -0.5614  -0.5560  -0.5541  -0.5511  -0.5469
 -0.5456  -0.5423  -0.5155  -0.5114  -0.5016  -0.4831  -0.4703  -0.4635
 -0.4530  -0.4419  -0.4398  -0.4326  -0.4171  -0.4053  -0.3524  -0.3407
 -0.3294  -0.2737

          Ground-State Mulliken Net Atomic Charges

     Atom                 Charge (a.u.)
  ----------------------------------------
      1 C                    -0.086320
      2 C                    -0.030449
      3 C                    -0.119885
      4 C                    -0.120340
      5 H                     0.197978
      6 C                     0.015480
      7 C                     0.124474
      8 C                    -0.089556
      9 C                    -0.189432
     10 C                    -0.134559
     11 C                     0.163015
     12 H                     0.185832
     13 C                     0.342052
     14 C                     0.346941
     15 N                    -0.089130
     16 C                     0.356785
     17 C                     0.404203
     18 N                    -0.083768
     19 O                    -0.499020
     20 O                    -0.509299
     21 O                    -0.500161
     22 O                    -0.473075
     23 C                    -0.205662
     24 H                     0.138918
     25 H                     0.108764
     26 H                     0.108566
     27 C                    -0.200368
     28 H                     0.135681
     29 H                     0.112097
     30 H                     0.112401
     31 C                    -0.183577
     32 S                    -0.030580
     33 C                    -0.138531
     34 C                     0.007604
     35 C                    -0.242138
     36 H                     0.198633
     37 H                     0.187972
     38 H                     0.216299
     39 H                     0.135986
     40 H                     0.136400
     41 H                     0.189771
  ----------------------------------------
  Sum of atomic charges =     0.000000

                    Cartesian Multipole Moments
 -----------------------------------------------------------------
    Charge (ESU x 10^10)
                 0.0000
    Dipole Moment (Debye)
         X       4.8539      Y       2.2650      Z      -2.7254
       Tot       6.0099
    Quadrupole Moments (Debye-Ang)
        XX    -166.0534     XY      -2.0518     YY    -189.9011
        XZ      16.0064     YZ       7.8435     ZZ    -174.8340

 Total job time:  338.94s(wall), 10881.59s(cpu)
        *  Thank you very much for using Q-Chem.  Have a nice day.  *
