 Q-Chem 5.4, Q-Chem, Inc., Pleasanton, CA (2021)
 Q-Chem 5.4.0 for Intel X86 EM64T Linux

User input:
--------------------------------------------------------------
$molecule
0 1
C	-0.195868	-6.741404	0.166281
C	-1.196048	-6.155638	1.005696
C	0.634911	-5.791452	-0.530233
C	-1.409599	-4.803786	1.184587
H	-1.868538	-6.821518	1.570232
C	0.410996	-4.378638	-0.343266
C	-0.608444	-3.838032	0.511683
C	1.211179	-3.413062	-1.015440
C	-0.830559	-2.426473	0.697165
C	0.999915	-2.059348	-0.838968
C	-0.000000	-1.478216	-0.000000
H	1.673009	-1.394783	-1.404302
C	1.741129	-6.187987	-1.456059
C	2.307170	-3.798164	-1.934944
N	2.494766	-5.170003	-2.090139
C	-2.508468	-4.424987	2.106725
C	-1.936893	-2.036627	1.624494
N	-2.690936	-3.049156	2.258486
O	2.042736	-7.353131	-1.705414
O	3.013823	-2.986854	-2.529122
O	-3.206857	-5.248946	2.693680
O	-2.254108	-0.878829	1.888802
C	3.577543	-5.563799	-2.997334
H	3.612920	-6.664085	-3.025519
H	4.536833	-5.147101	-2.635109
H	3.387762	-5.148785	-4.005702
C	-3.756883	-2.587487	3.152347
H	-4.248464	-3.483329	3.566218
H	-4.478763	-1.964972	2.590383
H	-3.329599	-1.962932	3.959687
C	0.000000	0.000000	0.000000
S	0.271091	0.745405	1.580530
C	0.831198	2.284363	0.904911
C	0.341175	0.937861	-0.985400
C	0.792631	2.178516	-0.493528
H	0.260601	0.716417	-2.059934
H	1.093860	3.006347	-1.152593
H	1.132330	3.111961	1.556025
H	-0.691254	-7.361589	-0.590631
H	0.463164	-7.361192	0.786357
H	-0.693804	-1.478831	-0.827669
$end

$rem
JOBTYPE		SP
EXCHANGE	HF
CORRELATION	pRIMP2
BASIS		cc-pvtz
METHOD		rimp2
AUX_BASIS	rimp2-cc-pvtz
SOLVENT_METHOD	PCM
PURECART	11111
SYMMETRY	false
MEM_TOTAL	110000
SCF_CONVERGENCE = 6
THRESH=10
GUI = 2
$end

$solvent
dielectric 4.90
$end
--------------------------------------------------------------

             Standard Nuclear Orientation (Angstroms)
    I     Atom           X                Y                Z
 ----------------------------------------------------------------
    1      C      -0.1958680000    -6.7414040000     0.1662810000
    2      C      -1.1960480000    -6.1556380000     1.0056960000
    3      C       0.6349110000    -5.7914520000    -0.5302330000
    4      C      -1.4095990000    -4.8037860000     1.1845870000
    5      H      -1.8685380000    -6.8215180000     1.5702320000
    6      C       0.4109960000    -4.3786380000    -0.3432660000
    7      C      -0.6084440000    -3.8380320000     0.5116830000
    8      C       1.2111790000    -3.4130620000    -1.0154400000
    9      C      -0.8305590000    -2.4264730000     0.6971650000
   10      C       0.9999150000    -2.0593480000    -0.8389680000
   11      C       0.0000000000    -1.4782160000     0.0000000000
   12      H       1.6730090000    -1.3947830000    -1.4043020000
   13      C       1.7411290000    -6.1879870000    -1.4560590000
   14      C       2.3071700000    -3.7981640000    -1.9349440000
   15      N       2.4947660000    -5.1700030000    -2.0901390000
   16      C      -2.5084680000    -4.4249870000     2.1067250000
   17      C      -1.9368930000    -2.0366270000     1.6244940000
   18      N      -2.6909360000    -3.0491560000     2.2584860000
   19      O       2.0427360000    -7.3531310000    -1.7054140000
   20      O       3.0138230000    -2.9868540000    -2.5291220000
   21      O      -3.2068570000    -5.2489460000     2.6936800000
   22      O      -2.2541080000    -0.8788290000     1.8888020000
   23      C       3.5775430000    -5.5637990000    -2.9973340000
   24      H       3.6129200000    -6.6640850000    -3.0255190000
   25      H       4.5368330000    -5.1471010000    -2.6351090000
   26      H       3.3877620000    -5.1487850000    -4.0057020000
   27      C      -3.7568830000    -2.5874870000     3.1523470000
   28      H      -4.2484640000    -3.4833290000     3.5662180000
   29      H      -4.4787630000    -1.9649720000     2.5903830000
   30      H      -3.3295990000    -1.9629320000     3.9596870000
   31      C       0.0000000000     0.0000000000     0.0000000000
   32      S       0.2710910000     0.7454050000     1.5805300000
   33      C       0.8311980000     2.2843630000     0.9049110000
   34      C       0.3411750000     0.9378610000    -0.9854000000
   35      C       0.7926310000     2.1785160000    -0.4935280000
   36      H       0.2606010000     0.7164170000    -2.0599340000
   37      H       1.0938600000     3.0063470000    -1.1525930000
   38      H       1.1323300000     3.1119610000     1.5560250000
   39      H      -0.6912540000    -7.3615890000    -0.5906310000
   40      H       0.4631640000    -7.3611920000     0.7863570000
   41      H      -0.6938040000    -1.4788310000    -0.8276690000
 ----------------------------------------------------------------

   11   -1571.7389740156      5.65e-07  Convergence criterion met
 Total energy in the final basis set =    -1571.7389740156
        RIMP2         total energy =     -1576.3971842936 a.u.

                    Orbital Energies (a.u.)
 --------------------------------------------------------------

 Alpha MOs
 -- Occupied --
-91.9837 -20.5525 -20.5446 -20.5416 -20.5407 -15.6272 -15.6215 -11.3940
-11.3854 -11.3835 -11.3794 -11.3096 -11.3093 -11.3060 -11.3049 -11.2971
-11.2963 -11.2904 -11.2794 -11.2689 -11.2685 -11.2646 -11.2628 -11.2596
-11.2567 -11.2529 -11.2489  -8.9835  -6.6643  -6.6637  -6.6632  -1.4203
 -1.4123  -1.3978  -1.3915  -1.2625  -1.2556  -1.2304  -1.1867  -1.1517
 -1.1145  -1.0866  -1.0472  -0.9953  -0.9881  -0.9827  -0.9553  -0.9505
 -0.8967  -0.8884  -0.8771  -0.8602  -0.7937  -0.7771  -0.7716  -0.7624
 -0.7387  -0.7170  -0.7036  -0.6919  -0.6812  -0.6734  -0.6670  -0.6574
 -0.6474  -0.6453  -0.6367  -0.6329  -0.6310  -0.6282  -0.6213  -0.6051
 -0.5851  -0.5751  -0.5670  -0.5619  -0.5582  -0.5516  -0.5508  -0.5480
 -0.5470  -0.5439  -0.5219  -0.5128  -0.5095  -0.4821  -0.4743  -0.4600
 -0.4570  -0.4505  -0.4428  -0.4347  -0.4133  -0.4076  -0.3535  -0.3498
 -0.3296  -0.2841

          Ground-State Mulliken Net Atomic Charges

     Atom                 Charge (a.u.)
  ----------------------------------------
      1 C                    -0.084433
      2 C                    -0.030100
      3 C                    -0.111177
      4 C                    -0.124826
      5 H                     0.199234
      6 C                     0.025751
      7 C                     0.118610
      8 C                    -0.093485
      9 C                    -0.165337
     10 C                    -0.143333
     11 C                     0.196411
     12 H                     0.197962
     13 C                     0.342287
     14 C                     0.347277
     15 N                    -0.089803
     16 C                     0.357163
     17 C                     0.345365
     18 N                    -0.090980
     19 O                    -0.494850
     20 O                    -0.508069
     21 O                    -0.501291
     22 O                    -0.470116
     23 C                    -0.204854
     24 H                     0.139561
     25 H                     0.109307
     26 H                     0.108830
     27 C                    -0.197189
     28 H                     0.133275
     29 H                     0.111680
     30 H                     0.112048
     31 C                     0.001983
     32 S                     0.039750
     33 C                    -0.218422
     34 C                    -0.235465
     35 C                    -0.197518
     36 H                     0.191174
     37 H                     0.190402
     38 H                     0.208893
     39 H                     0.137547
     40 H                     0.138107
     41 H                     0.208631
  ----------------------------------------
  Sum of atomic charges =     0.000000

                    Cartesian Multipole Moments
 -----------------------------------------------------------------
    Charge (ESU x 10^10)
                 0.0000
    Dipole Moment (Debye)
         X      -0.7880      Y       1.9215      Z      -0.9112
       Tot       2.2679
    Quadrupole Moments (Debye-Ang)
        XX    -180.7962     XY      11.2773     YY    -179.1273
        XZ      16.4199     YZ      -4.2056     ZZ    -169.9597

 Total job time:  284.05s(wall), 8777.73s(cpu)
        *  Thank you very much for using Q-Chem.  Have a nice day.  *
