 Q-Chem 5.4, Q-Chem, Inc., Pleasanton, CA (2021)
 Q-Chem 5.4.0 for Intel X86 EM64T Linux

User input:
--------------------------------------------------------------
$molecule
0 1
C	0.129743	-6.741404	0.221766
C	0.782726	-6.155638	1.352515
C	-0.411926	-5.791452	-0.717339
C	0.921816	-4.803786	1.593885
H	1.221908	-6.821518	2.112819
C	-0.266682	-4.378638	-0.464360
C	0.398255	-3.838032	0.688053
C	-0.789694	-3.413062	-1.369108
C	0.542349	-2.426473	0.939002
C	-0.652589	-2.059348	-1.130409
C	-0.000000	-1.478216	-0.000000
H	-1.092453	-1.394783	-1.891446
C	-1.131595	-6.187987	-1.967519
C	-1.504912	-3.798164	-2.608118
N	-1.625174	-5.170003	-2.819813
C	1.639129	-4.424987	2.836188
C	1.263477	-2.036627	2.189558
N	1.756898	-3.049156	3.042237
O	-1.324787	-7.353131	-2.307845
O	-1.967354	-2.986854	-3.407213
O	2.095892	-5.248946	3.625890
O	1.468685	-0.878829	2.547850
C	-2.330564	-5.563799	-4.043674
H	-2.352178	-6.664085	-4.083407
H	-1.807263	-5.147101	-4.925490
H	-3.356568	-5.148785	-4.031877
C	2.452080	-2.587487	4.247206
H	2.774302	-3.483329	4.803187
H	1.773301	-1.964972	4.860536
H	3.321351	-1.962932	3.966607
C	0.000000	0.000000	0.000000
S	-0.000201	0.793171	1.580530
C	-0.000228	2.430885	0.904911
C	-0.000168	0.997990	-0.985400
C	-0.000267	2.318231	-0.493528
H	-0.000145	0.762343	-2.059934
H	-0.000339	3.199164	-1.152593
H	-0.000311	3.311566	1.556025
H	-0.701693	-7.361589	0.578191
H	0.854838	-7.361192	-0.319578
H	-0.935572	-1.478831	0.539540
$end

$rem
JOBTYPE		SP
EXCHANGE	HF
CORRELATION	pRIMP2
BASIS		cc-pvtz
METHOD		rimp2
AUX_BASIS	rimp2-cc-pvtz
SOLVENT_METHOD	PCM
PURECART	11111
SYMMETRY	false
MEM_TOTAL	110000
SCF_CONVERGENCE = 6
THRESH=10
GUI = 2
$end

$solvent
dielectric 4.90
$end
--------------------------------------------------------------

             Standard Nuclear Orientation (Angstroms)
    I     Atom           X                Y                Z
 ----------------------------------------------------------------
    1      C       0.1297430000    -6.7414040000     0.2217660000
    2      C       0.7827260000    -6.1556380000     1.3525150000
    3      C      -0.4119260000    -5.7914520000    -0.7173390000
    4      C       0.9218160000    -4.8037860000     1.5938850000
    5      H       1.2219080000    -6.8215180000     2.1128190000
    6      C      -0.2666820000    -4.3786380000    -0.4643600000
    7      C       0.3982550000    -3.8380320000     0.6880530000
    8      C      -0.7896940000    -3.4130620000    -1.3691080000
    9      C       0.5423490000    -2.4264730000     0.9390020000
   10      C      -0.6525890000    -2.0593480000    -1.1304090000
   11      C       0.0000000000    -1.4782160000     0.0000000000
   12      H      -1.0924530000    -1.3947830000    -1.8914460000
   13      C      -1.1315950000    -6.1879870000    -1.9675190000
   14      C      -1.5049120000    -3.7981640000    -2.6081180000
   15      N      -1.6251740000    -5.1700030000    -2.8198130000
   16      C       1.6391290000    -4.4249870000     2.8361880000
   17      C       1.2634770000    -2.0366270000     2.1895580000
   18      N       1.7568980000    -3.0491560000     3.0422370000
   19      O      -1.3247870000    -7.3531310000    -2.3078450000
   20      O      -1.9673540000    -2.9868540000    -3.4072130000
   21      O       2.0958920000    -5.2489460000     3.6258900000
   22      O       1.4686850000    -0.8788290000     2.5478500000
   23      C      -2.3305640000    -5.5637990000    -4.0436740000
   24      H      -2.3521780000    -6.6640850000    -4.0834070000
   25      H      -1.8072630000    -5.1471010000    -4.9254900000
   26      H      -3.3565680000    -5.1487850000    -4.0318770000
   27      C       2.4520800000    -2.5874870000     4.2472060000
   28      H       2.7743020000    -3.4833290000     4.8031870000
   29      H       1.7733010000    -1.9649720000     4.8605360000
   30      H       3.3213510000    -1.9629320000     3.9666070000
   31      C       0.0000000000     0.0000000000     0.0000000000
   32      S      -0.0002010000     0.7931710000     1.5805300000
   33      C      -0.0002280000     2.4308850000     0.9049110000
   34      C      -0.0001680000     0.9979900000    -0.9854000000
   35      C      -0.0002670000     2.3182310000    -0.4935280000
   36      H      -0.0001450000     0.7623430000    -2.0599340000
   37      H      -0.0003390000     3.1991640000    -1.1525930000
   38      H      -0.0003110000     3.3115660000     1.5560250000
   39      H      -0.7016930000    -7.3615890000     0.5781910000
   40      H       0.8548380000    -7.3611920000    -0.3195780000
   41      H      -0.9355720000    -1.4788310000     0.5395400000
 ----------------------------------------------------------------

   11   -1571.7217411824      5.90e-07  Convergence criterion met
 Total energy in the final basis set =    -1571.7217411824
        RIMP2         total energy =     -1576.3847819570 a.u.

                    Orbital Energies (a.u.)
 --------------------------------------------------------------

 Alpha MOs
 -- Occupied --
-91.9766 -20.5517 -20.5454 -20.5426 -20.5414 -15.6284 -15.6221 -11.3962
-11.3862 -11.3845 -11.3800 -11.3114 -11.3095 -11.3070 -11.3057 -11.2983
-11.2942 -11.2911 -11.2708 -11.2694 -11.2690 -11.2661 -11.2637 -11.2599
-11.2539 -11.2479 -11.2403  -8.9768  -6.6573  -6.6566  -6.6560  -1.4243
 -1.4131  -1.4001  -1.3922  -1.2644  -1.2563  -1.2310  -1.1856  -1.1481
 -1.1153  -1.0867  -1.0484  -0.9941  -0.9888  -0.9773  -0.9558  -0.9489
 -0.8970  -0.8897  -0.8786  -0.8619  -0.7923  -0.7786  -0.7742  -0.7622
 -0.7313  -0.7201  -0.7014  -0.6907  -0.6850  -0.6725  -0.6685  -0.6583
 -0.6493  -0.6438  -0.6387  -0.6331  -0.6320  -0.6301  -0.6233  -0.6057
 -0.5875  -0.5734  -0.5641  -0.5618  -0.5588  -0.5524  -0.5519  -0.5488
 -0.5479  -0.5447  -0.5182  -0.5145  -0.5113  -0.4847  -0.4800  -0.4623
 -0.4558  -0.4451  -0.4378  -0.4303  -0.4113  -0.4082  -0.3546  -0.3356
 -0.3271  -0.2809

          Ground-State Mulliken Net Atomic Charges

     Atom                 Charge (a.u.)
  ----------------------------------------
      1 C                    -0.084960
      2 C                    -0.028454
      3 C                    -0.107657
      4 C                    -0.124958
      5 H                     0.199691
      6 C                     0.024621
      7 C                     0.122551
      8 C                    -0.109636
      9 C                    -0.203607
     10 C                    -0.132728
     11 C                     0.250889
     12 H                     0.194368
     13 C                     0.343124
     14 C                     0.351874
     15 N                    -0.090182
     16 C                     0.357528
     17 C                     0.382164
     18 N                    -0.090997
     19 O                    -0.493418
     20 O                    -0.507267
     21 O                    -0.500802
     22 O                    -0.466676
     23 C                    -0.204652
     24 H                     0.139619
     25 H                     0.109364
     26 H                     0.109328
     27 C                    -0.197840
     28 H                     0.134031
     29 H                     0.111920
     30 H                     0.112342
     31 C                    -0.078128
     32 S                     0.057380
     33 C                    -0.233702
     34 C                    -0.174369
     35 C                    -0.232508
     36 H                     0.185309
     37 H                     0.184750
     38 H                     0.207164
     39 H                     0.138534
     40 H                     0.138719
     41 H                     0.207270
  ----------------------------------------
  Sum of atomic charges =     0.000000

                    Cartesian Multipole Moments
 -----------------------------------------------------------------
    Charge (ESU x 10^10)
                 0.0000
    Dipole Moment (Debye)
         X       0.1445      Y       0.9990      Z       1.0093
       Tot       1.4274
    Quadrupole Moments (Debye-Ang)
        XX    -170.6546     XY      -3.1851     YY    -177.1899
        XZ     -13.3469     YZ      -7.8420     ZZ    -179.7304

 Total job time:  349.06s(wall), 11321.04s(cpu)
        *  Thank you very much for using Q-Chem.  Have a nice day.  *
