 Q-Chem 5.4, Q-Chem, Inc., Pleasanton, CA (2021)
 Q-Chem 5.4.0 for Intel X86 EM64T Linux

User input:
--------------------------------------------------------------
$molecule
0 1
C	0.241938	-6.741404	0.086486
C	1.468983	-6.155638	0.532960
C	-0.776651	-5.791452	-0.284733
C	1.730681	-4.803786	0.628455
H	2.294130	-6.821518	0.833086
C	-0.502775	-4.378638	-0.184300
C	0.747353	-3.838032	0.271086
C	-1.484986	-3.413062	-0.541191
C	1.019042	-2.426473	0.370703
C	-1.226525	-2.059348	-0.446468
C	0.000000	-1.478216	0.000000
H	-2.052666	-1.394783	-0.746717
C	-2.131549	-6.187987	-0.779832
C	-2.829295	-3.798164	-1.030596
N	-3.057496	-5.170003	-1.115461
C	3.078712	-4.424987	1.119034
C	2.375300	-2.036627	0.865151
N	3.301374	-3.049156	1.201176
O	-2.498300	-7.353131	-0.916355
O	-3.697195	-2.986854	-1.345486
O	3.936224	-5.248946	1.430379
O	2.762805	-0.878829	1.007714
C	-4.384539	-5.563799	-1.599576
H	-4.426636	-6.664085	-1.616121
H	-4.550487	-5.147101	-2.611458
H	-5.162921	-5.148785	-0.931037
C	4.608454	-2.587487	1.677382
H	5.212668	-3.483329	1.896168
H	4.482719	-1.964972	2.583531
H	5.093988	-1.962932	0.903674
C	0.000000	0.000000	0.000000
S	0.137535	0.781156	1.580530
C	0.421895	2.393994	0.904911
C	0.173134	0.982857	-0.985400
C	0.402294	2.283058	-0.493528
H	0.132237	0.750786	-2.059934
H	0.555196	3.150621	-1.152593
H	0.574741	3.261310	1.556025
H	-0.165874	-7.361589	0.893959
H	0.449423	-7.361192	-0.794290
H	-0.369880	-1.478831	1.014686
$end

$rem
JOBTYPE		SP
EXCHANGE	HF
CORRELATION	pRIMP2
BASIS		cc-pvtz
METHOD		rimp2
AUX_BASIS	rimp2-cc-pvtz
SOLVENT_METHOD	PCM
PURECART	11111
SYMMETRY	false
MEM_TOTAL	110000
SCF_CONVERGENCE = 6
THRESH=10
GUI = 2
$end

$solvent
dielectric 4.90
$end
--------------------------------------------------------------

             Standard Nuclear Orientation (Angstroms)
    I     Atom           X                Y                Z
 ----------------------------------------------------------------
    1      C       0.2419380000    -6.7414040000     0.0864860000
    2      C       1.4689830000    -6.1556380000     0.5329600000
    3      C      -0.7766510000    -5.7914520000    -0.2847330000
    4      C       1.7306810000    -4.8037860000     0.6284550000
    5      H       2.2941300000    -6.8215180000     0.8330860000
    6      C      -0.5027750000    -4.3786380000    -0.1843000000
    7      C       0.7473530000    -3.8380320000     0.2710860000
    8      C      -1.4849860000    -3.4130620000    -0.5411910000
    9      C       1.0190420000    -2.4264730000     0.3707030000
   10      C      -1.2265250000    -2.0593480000    -0.4464680000
   11      C       0.0000000000    -1.4782160000     0.0000000000
   12      H      -2.0526660000    -1.3947830000    -0.7467170000
   13      C      -2.1315490000    -6.1879870000    -0.7798320000
   14      C      -2.8292950000    -3.7981640000    -1.0305960000
   15      N      -3.0574960000    -5.1700030000    -1.1154610000
   16      C       3.0787120000    -4.4249870000     1.1190340000
   17      C       2.3753000000    -2.0366270000     0.8651510000
   18      N       3.3013740000    -3.0491560000     1.2011760000
   19      O      -2.4983000000    -7.3531310000    -0.9163550000
   20      O      -3.6971950000    -2.9868540000    -1.3454860000
   21      O       3.9362240000    -5.2489460000     1.4303790000
   22      O       2.7628050000    -0.8788290000     1.0077140000
   23      C      -4.3845390000    -5.5637990000    -1.5995760000
   24      H      -4.4266360000    -6.6640850000    -1.6161210000
   25      H      -4.5504870000    -5.1471010000    -2.6114580000
   26      H      -5.1629210000    -5.1487850000    -0.9310370000
   27      C       4.6084540000    -2.5874870000     1.6773820000
   28      H       5.2126680000    -3.4833290000     1.8961680000
   29      H       4.4827190000    -1.9649720000     2.5835310000
   30      H       5.0939880000    -1.9629320000     0.9036740000
   31      C       0.0000000000     0.0000000000     0.0000000000
   32      S       0.1375350000     0.7811560000     1.5805300000
   33      C       0.4218950000     2.3939940000     0.9049110000
   34      C       0.1731340000     0.9828570000    -0.9854000000
   35      C       0.4022940000     2.2830580000    -0.4935280000
   36      H       0.1322370000     0.7507860000    -2.0599340000
   37      H       0.5551960000     3.1506210000    -1.1525930000
   38      H       0.5747410000     3.2613100000     1.5560250000
   39      H      -0.1658740000    -7.3615890000     0.8939590000
   40      H       0.4494230000    -7.3611920000    -0.7942900000
   41      H      -0.3698800000    -1.4788310000     1.0146860000
 ----------------------------------------------------------------

   11   -1571.7421535884      5.64e-07  Convergence criterion met
 Total energy in the final basis set =    -1571.7421535884
        RIMP2         total energy =     -1576.3979714253 a.u.

                    Orbital Energies (a.u.)
 --------------------------------------------------------------

 Alpha MOs
 -- Occupied --
-91.9889 -20.5504 -20.5441 -20.5418 -20.5405 -15.6262 -15.6213 -11.3922
-11.3848 -11.3837 -11.3791 -11.3084 -11.3081 -11.3048 -11.3046 -11.2963
-11.2924 -11.2889 -11.2827 -11.2692 -11.2679 -11.2642 -11.2624 -11.2594
-11.2538 -11.2527 -11.2496  -8.9886  -6.6695  -6.6690  -6.6684  -1.4186
 -1.4123  -1.3966  -1.3914  -1.2615  -1.2554  -1.2295  -1.1861  -1.1519
 -1.1139  -1.0864  -1.0464  -0.9951  -0.9876  -0.9834  -0.9548  -0.9510
 -0.8957  -0.8869  -0.8766  -0.8600  -0.7926  -0.7757  -0.7740  -0.7676
 -0.7360  -0.7171  -0.7038  -0.6911  -0.6776  -0.6700  -0.6674  -0.6570
 -0.6467  -0.6398  -0.6383  -0.6322  -0.6308  -0.6269  -0.6227  -0.6048
 -0.5844  -0.5746  -0.5666  -0.5612  -0.5571  -0.5511  -0.5503  -0.5479
 -0.5460  -0.5434  -0.5181  -0.5162  -0.5089  -0.4813  -0.4738  -0.4666
 -0.4561  -0.4502  -0.4427  -0.4345  -0.4129  -0.4074  -0.3530  -0.3504
 -0.3279  -0.2898

          Ground-State Mulliken Net Atomic Charges

     Atom                 Charge (a.u.)
  ----------------------------------------
      1 C                    -0.084458
      2 C                    -0.030672
      3 C                    -0.110331
      4 C                    -0.122312
      5 H                     0.198664
      6 C                     0.010521
      7 C                     0.121239
      8 C                    -0.090674
      9 C                    -0.180923
     10 C                    -0.131950
     11 C                     0.247059
     12 H                     0.191734
     13 C                     0.343350
     14 C                     0.351870
     15 N                    -0.090317
     16 C                     0.356493
     17 C                     0.362772
     18 N                    -0.090638
     19 O                    -0.494092
     20 O                    -0.507351
     21 O                    -0.501874
     22 O                    -0.468731
     23 C                    -0.204670
     24 H                     0.139422
     25 H                     0.109052
     26 H                     0.109196
     27 C                    -0.197372
     28 H                     0.133000
     29 H                     0.111276
     30 H                     0.111645
     31 C                    -0.074478
     32 S                     0.020905
     33 C                    -0.212120
     34 C                    -0.179134
     35 C                    -0.201208
     36 H                     0.189652
     37 H                     0.190880
     38 H                     0.211775
     39 H                     0.137620
     40 H                     0.137640
     41 H                     0.187538
  ----------------------------------------
  Sum of atomic charges =     0.000000

                    Cartesian Multipole Moments
 -----------------------------------------------------------------
    Charge (ESU x 10^10)
                 0.0000
    Dipole Moment (Debye)
         X       1.0592      Y       2.3110      Z       0.1225
       Tot       2.5452
    Quadrupole Moments (Debye-Ang)
        XX    -191.8510     XY      -5.6191     YY    -177.9671
        XZ     -10.2847     YZ      -3.3786     ZZ    -159.9891

 Total job time:  308.27s(wall), 8633.87s(cpu)
        *  Thank you very much for using Q-Chem.  Have a nice day.  *
