 Q-Chem 5.4, Q-Chem, Inc., Pleasanton, CA (2021)
 Q-Chem 5.4.0 for Intel X86 EM64T Linux

User input:
--------------------------------------------------------------
$molecule
0 1
C	-0.129743	-6.741404	-0.221766
C	-0.782726	-6.155638	-1.352515
C	0.411926	-5.791452	0.717339
C	-0.921816	-4.803786	-1.593885
H	-1.221908	-6.821518	-2.112819
C	0.266682	-4.378638	0.464360
C	-0.398255	-3.838032	-0.688053
C	0.789694	-3.413062	1.369108
C	-0.542349	-2.426473	-0.939002
C	0.652589	-2.059348	1.130409
C	-0.000000	-1.478216	-0.000000
H	1.092453	-1.394783	1.891446
C	1.131595	-6.187987	1.967519
C	1.504912	-3.798164	2.608118
N	1.625174	-5.170003	2.819813
C	-1.639129	-4.424987	-2.836188
C	-1.263477	-2.036627	-2.189558
N	-1.756898	-3.049156	-3.042237
O	1.324787	-7.353131	2.307845
O	1.967354	-2.986854	3.407213
O	-2.095892	-5.248946	-3.625890
O	-1.468685	-0.878829	-2.547850
C	2.330564	-5.563799	4.043674
H	2.352178	-6.664085	4.083407
H	1.807263	-5.147101	4.925490
H	3.356568	-5.148785	4.031877
C	-2.452080	-2.587487	-4.247206
H	-2.774302	-3.483329	-4.803187
H	-1.773301	-1.964972	-4.860536
H	-3.321351	-1.962932	-3.966607
C	0.000000	0.000000	0.000000
S	0.607475	0.509994	1.580530
C	1.862020	1.562717	0.904911
C	0.764397	0.641624	-0.985400
C	1.775697	1.490335	-0.493528
H	0.583895	0.490135	-2.059934
H	2.450484	2.056643	-1.152593
H	2.536607	2.128872	1.556025
H	0.701693	-7.361589	-0.578191
H	-0.854838	-7.361192	0.319578
H	0.935572	-1.478831	-0.539540
$end

$rem
JOBTYPE		SP
EXCHANGE	HF
CORRELATION	pRIMP2
BASIS		cc-pvtz
METHOD		rimp2
AUX_BASIS	rimp2-cc-pvtz
SOLVENT_METHOD	PCM
PURECART	11111
SYMMETRY	false
MEM_TOTAL	110000
SCF_CONVERGENCE = 6
THRESH=10
GUI = 2
$end

$solvent
dielectric 4.90
$end
--------------------------------------------------------------

             Standard Nuclear Orientation (Angstroms)
    I     Atom           X                Y                Z
 ----------------------------------------------------------------
    1      C      -0.1297430000    -6.7414040000    -0.2217660000
    2      C      -0.7827260000    -6.1556380000    -1.3525150000
    3      C       0.4119260000    -5.7914520000     0.7173390000
    4      C      -0.9218160000    -4.8037860000    -1.5938850000
    5      H      -1.2219080000    -6.8215180000    -2.1128190000
    6      C       0.2666820000    -4.3786380000     0.4643600000
    7      C      -0.3982550000    -3.8380320000    -0.6880530000
    8      C       0.7896940000    -3.4130620000     1.3691080000
    9      C      -0.5423490000    -2.4264730000    -0.9390020000
   10      C       0.6525890000    -2.0593480000     1.1304090000
   11      C       0.0000000000    -1.4782160000     0.0000000000
   12      H       1.0924530000    -1.3947830000     1.8914460000
   13      C       1.1315950000    -6.1879870000     1.9675190000
   14      C       1.5049120000    -3.7981640000     2.6081180000
   15      N       1.6251740000    -5.1700030000     2.8198130000
   16      C      -1.6391290000    -4.4249870000    -2.8361880000
   17      C      -1.2634770000    -2.0366270000    -2.1895580000
   18      N      -1.7568980000    -3.0491560000    -3.0422370000
   19      O       1.3247870000    -7.3531310000     2.3078450000
   20      O       1.9673540000    -2.9868540000     3.4072130000
   21      O      -2.0958920000    -5.2489460000    -3.6258900000
   22      O      -1.4686850000    -0.8788290000    -2.5478500000
   23      C       2.3305640000    -5.5637990000     4.0436740000
   24      H       2.3521780000    -6.6640850000     4.0834070000
   25      H       1.8072630000    -5.1471010000     4.9254900000
   26      H       3.3565680000    -5.1487850000     4.0318770000
   27      C      -2.4520800000    -2.5874870000    -4.2472060000
   28      H      -2.7743020000    -3.4833290000    -4.8031870000
   29      H      -1.7733010000    -1.9649720000    -4.8605360000
   30      H      -3.3213510000    -1.9629320000    -3.9666070000
   31      C       0.0000000000     0.0000000000     0.0000000000
   32      S       0.6074750000     0.5099940000     1.5805300000
   33      C       1.8620200000     1.5627170000     0.9049110000
   34      C       0.7643970000     0.6416240000    -0.9854000000
   35      C       1.7756970000     1.4903350000    -0.4935280000
   36      H       0.5838950000     0.4901350000    -2.0599340000
   37      H       2.4504840000     2.0566430000    -1.1525930000
   38      H       2.5366070000     2.1288720000     1.5560250000
   39      H       0.7016930000    -7.3615890000    -0.5781910000
   40      H      -0.8548380000    -7.3611920000     0.3195780000
   41      H       0.9355720000    -1.4788310000    -0.5395400000
 ----------------------------------------------------------------

   11   -1571.6729232137      6.02e-07  Convergence criterion met
 Total energy in the final basis set =    -1571.6729232137
        RIMP2         total energy =     -1576.3469280237 a.u.

                    Orbital Energies (a.u.)
 --------------------------------------------------------------

 Alpha MOs
 -- Occupied --
-91.9917 -20.5537 -20.5441 -20.5382 -20.5381 -15.6272 -15.6191 -11.3942
-11.3847 -11.3801 -11.3763 -11.3057 -11.3023 -11.3014 -11.2974 -11.2966
-11.2950 -11.2872 -11.2853 -11.2666 -11.2632 -11.2632 -11.2613 -11.2592
-11.2582 -11.2536 -11.2503  -8.9932  -6.6738  -6.6731  -6.6729  -1.4205
 -1.4096  -1.3976  -1.3887  -1.2622  -1.2532  -1.2337  -1.1938  -1.1510
 -1.1115  -1.0842  -1.0459  -0.9987  -0.9967  -0.9865  -0.9541  -0.9470
 -0.8957  -0.8869  -0.8747  -0.8570  -0.7980  -0.7805  -0.7694  -0.7621
 -0.7381  -0.7191  -0.7001  -0.6931  -0.6849  -0.6704  -0.6662  -0.6559
 -0.6486  -0.6460  -0.6350  -0.6309  -0.6289  -0.6263  -0.6213  -0.6035
 -0.5920  -0.5768  -0.5714  -0.5610  -0.5574  -0.5513  -0.5491  -0.5489
 -0.5459  -0.5423  -0.5209  -0.5125  -0.4966  -0.4824  -0.4756  -0.4646
 -0.4552  -0.4506  -0.4405  -0.4324  -0.4136  -0.4058  -0.3510  -0.3496
 -0.3353  -0.2754

          Ground-State Mulliken Net Atomic Charges

     Atom                 Charge (a.u.)
  ----------------------------------------
      1 C                    -0.084868
      2 C                    -0.033299
      3 C                    -0.115571
      4 C                    -0.118307
      5 H                     0.197923
      6 C                     0.014358
      7 C                     0.112393
      8 C                    -0.038090
      9 C                    -0.193938
     10 C                    -0.191997
     11 C                     0.186359
     12 H                     0.193893
     13 C                     0.338265
     14 C                     0.346698
     15 N                    -0.088354
     16 C                     0.356720
     17 C                     0.358513
     18 N                    -0.090092
     19 O                    -0.499730
     20 O                    -0.513250
     21 O                    -0.501780
     22 O                    -0.476402
     23 C                    -0.205749
     24 H                     0.139163
     25 H                     0.108681
     26 H                     0.108209
     27 C                    -0.198400
     28 H                     0.133670
     29 H                     0.110442
     30 H                     0.112352
     31 C                    -0.055651
     32 S                     0.028359
     33 C                    -0.172203
     34 C                    -0.119532
     35 C                    -0.244082
     36 H                     0.203705
     37 H                     0.193205
     38 H                     0.217281
     39 H                     0.135463
     40 H                     0.135778
     41 H                     0.209865
  ----------------------------------------
  Sum of atomic charges =     0.000000

                    Cartesian Multipole Moments
 -----------------------------------------------------------------
    Charge (ESU x 10^10)
                 0.0000
    Dipole Moment (Debye)
         X       2.2394      Y       2.7761      Z      -2.1813
       Tot       4.1809
    Quadrupole Moments (Debye-Ang)
        XX    -164.0196     XY       9.9551     YY    -189.6417
        XZ     -14.0490     YZ      10.0497     ZZ    -180.9402

 Total job time:  444.20s(wall), 10062.45s(cpu)
        *  Thank you very much for using Q-Chem.  Have a nice day.  *
