 Q-Chem 5.4, Q-Chem, Inc., Pleasanton, CA (2021)
 Q-Chem 5.4.0 for Intel X86 EM64T Linux

User input:
--------------------------------------------------------------
$molecule
0 1
C	0.089263	-6.741404	0.240927
C	0.535973	-6.155638	1.467886
C	-0.281103	-5.791452	-0.777972
C	0.631036	-4.803786	1.729742
H	0.836458	-6.821518	2.292903
C	-0.181995	-4.378638	-0.503614
C	0.272725	-3.838032	0.746756
C	-0.539954	-3.413062	-1.485437
C	0.371053	-2.426473	1.018915
C	-0.446381	-2.059348	-1.226557
C	-0.000000	-1.478216	-0.000000
H	-0.747410	-1.394783	-2.052413
C	-0.772747	-6.187987	-2.134128
C	-1.029154	-3.798164	-2.829820
N	-1.110828	-5.170003	-3.059182
C	1.121728	-4.424987	3.077731
C	0.864069	-2.036627	2.375694
N	1.201928	-3.049156	3.301101
O	-0.903908	-7.353131	-2.502830
O	-1.345809	-2.986854	-3.697078
O	1.434422	-5.248946	3.934752
O	1.003943	-0.878829	2.764177
C	-1.592981	-5.563799	-4.386939
H	-1.607367	-6.664085	-4.429822
H	-0.924504	-5.147101	-5.164489
H	-2.605446	-5.148785	-4.553486
C	1.677308	-2.587487	4.608481
H	1.898089	-3.483329	5.211969
H	0.902337	-1.964972	5.094624
H	2.582098	-1.962932	4.483092
C	0.000000	0.000000	0.000000
S	-0.000201	0.793171	1.580530
C	-0.000228	2.430885	0.904911
C	-0.000168	0.997990	-0.985400
C	-0.000267	2.318231	-0.493528
H	-0.000145	0.762343	-2.059934
H	-0.000339	3.199164	-1.152593
H	-0.000311	3.311566	1.556025
H	-0.791434	-7.361589	0.447559
H	0.897345	-7.361192	-0.166282
H	-1.015049	-1.478831	0.368883
$end

$rem
JOBTYPE		SP
EXCHANGE	HF
CORRELATION	pRIMP2
BASIS		cc-pvtz
METHOD		rimp2
AUX_BASIS	rimp2-cc-pvtz
SOLVENT_METHOD	PCM
PURECART	11111
SYMMETRY	false
MEM_TOTAL	110000
SCF_CONVERGENCE = 6
THRESH=10
GUI = 2
$end

$solvent
dielectric 4.90
$end
--------------------------------------------------------------

             Standard Nuclear Orientation (Angstroms)
    I     Atom           X                Y                Z
 ----------------------------------------------------------------
    1      C       0.0892630000    -6.7414040000     0.2409270000
    2      C       0.5359730000    -6.1556380000     1.4678860000
    3      C      -0.2811030000    -5.7914520000    -0.7779720000
    4      C       0.6310360000    -4.8037860000     1.7297420000
    5      H       0.8364580000    -6.8215180000     2.2929030000
    6      C      -0.1819950000    -4.3786380000    -0.5036140000
    7      C       0.2727250000    -3.8380320000     0.7467560000
    8      C      -0.5399540000    -3.4130620000    -1.4854370000
    9      C       0.3710530000    -2.4264730000     1.0189150000
   10      C      -0.4463810000    -2.0593480000    -1.2265570000
   11      C       0.0000000000    -1.4782160000     0.0000000000
   12      H      -0.7474100000    -1.3947830000    -2.0524130000
   13      C      -0.7727470000    -6.1879870000    -2.1341280000
   14      C      -1.0291540000    -3.7981640000    -2.8298200000
   15      N      -1.1108280000    -5.1700030000    -3.0591820000
   16      C       1.1217280000    -4.4249870000     3.0777310000
   17      C       0.8640690000    -2.0366270000     2.3756940000
   18      N       1.2019280000    -3.0491560000     3.3011010000
   19      O      -0.9039080000    -7.3531310000    -2.5028300000
   20      O      -1.3458090000    -2.9868540000    -3.6970780000
   21      O       1.4344220000    -5.2489460000     3.9347520000
   22      O       1.0039430000    -0.8788290000     2.7641770000
   23      C      -1.5929810000    -5.5637990000    -4.3869390000
   24      H      -1.6073670000    -6.6640850000    -4.4298220000
   25      H      -0.9245040000    -5.1471010000    -5.1644890000
   26      H      -2.6054460000    -5.1487850000    -4.5534860000
   27      C       1.6773080000    -2.5874870000     4.6084810000
   28      H       1.8980890000    -3.4833290000     5.2119690000
   29      H       0.9023370000    -1.9649720000     5.0946240000
   30      H       2.5820980000    -1.9629320000     4.4830920000
   31      C       0.0000000000     0.0000000000     0.0000000000
   32      S      -0.0002010000     0.7931710000     1.5805300000
   33      C      -0.0002280000     2.4308850000     0.9049110000
   34      C      -0.0001680000     0.9979900000    -0.9854000000
   35      C      -0.0002670000     2.3182310000    -0.4935280000
   36      H      -0.0001450000     0.7623430000    -2.0599340000
   37      H      -0.0003390000     3.1991640000    -1.1525930000
   38      H      -0.0003110000     3.3115660000     1.5560250000
   39      H      -0.7914340000    -7.3615890000     0.4475590000
   40      H       0.8973450000    -7.3611920000    -0.1662820000
   41      H      -1.0150490000    -1.4788310000     0.3688830000
 ----------------------------------------------------------------

   11   -1571.7095849068      5.96e-07  Convergence criterion met
 Total energy in the final basis set =    -1571.7095849068
        RIMP2         total energy =     -1576.3752874482 a.u.

                    Orbital Energies (a.u.)
 --------------------------------------------------------------

 Alpha MOs
 -- Occupied --
-91.9727 -20.5542 -20.5464 -20.5429 -20.5417 -15.6300 -15.6224 -11.3991
-11.3871 -11.3848 -11.3803 -11.3125 -11.3099 -11.3082 -11.3062 -11.2992
-11.2944 -11.2917 -11.2713 -11.2701 -11.2667 -11.2646 -11.2615 -11.2601
-11.2544 -11.2461 -11.2377  -8.9729  -6.6534  -6.6524  -6.6516  -1.4286
 -1.4133  -1.4021  -1.3925  -1.2665  -1.2567  -1.2316  -1.1856  -1.1467
 -1.1160  -1.0869  -1.0492  -0.9944  -0.9894  -0.9756  -0.9564  -0.9482
 -0.8980  -0.8908  -0.8795  -0.8629  -0.7923  -0.7805  -0.7752  -0.7602
 -0.7309  -0.7230  -0.7011  -0.6904  -0.6880  -0.6740  -0.6691  -0.6590
 -0.6509  -0.6451  -0.6386  -0.6334  -0.6326  -0.6319  -0.6237  -0.6061
 -0.5891  -0.5729  -0.5655  -0.5624  -0.5569  -0.5532  -0.5529  -0.5494
 -0.5485  -0.5454  -0.5194  -0.5141  -0.5120  -0.4858  -0.4819  -0.4637
 -0.4562  -0.4451  -0.4379  -0.4222  -0.4088  -0.4036  -0.3552  -0.3335
 -0.3270  -0.2788

          Ground-State Mulliken Net Atomic Charges

     Atom                 Charge (a.u.)
  ----------------------------------------
      1 C                    -0.084790
      2 C                    -0.028233
      3 C                    -0.106513
      4 C                    -0.123936
      5 H                     0.199954
      6 C                     0.025571
      7 C                     0.124176
      8 C                    -0.108759
      9 C                    -0.202742
     10 C                    -0.133805
     11 C                     0.238061
     12 H                     0.193472
     13 C                     0.343072
     14 C                     0.351694
     15 N                    -0.090394
     16 C                     0.358544
     17 C                     0.384383
     18 N                    -0.090346
     19 O                    -0.493178
     20 O                    -0.507146
     21 O                    -0.499861
     22 O                    -0.457641
     23 C                    -0.204653
     24 H                     0.139644
     25 H                     0.109585
     26 H                     0.109374
     27 C                    -0.198422
     28 H                     0.134560
     29 H                     0.112501
     30 H                     0.112891
     31 C                    -0.071671
     32 S                     0.061842
     33 C                    -0.245432
     34 C                    -0.169307
     35 C                    -0.241411
     36 H                     0.181803
     37 H                     0.181852
     38 H                     0.204438
     39 H                     0.138861
     40 H                     0.139097
     41 H                     0.212864
  ----------------------------------------
  Sum of atomic charges =     0.000000

                    Cartesian Multipole Moments
 -----------------------------------------------------------------
    Charge (ESU x 10^10)
                 0.0000
    Dipole Moment (Debye)
         X      -0.1042      Y       0.4272      Z       1.2315
       Tot       1.3077
    Quadrupole Moments (Debye-Ang)
        XX    -166.2843     XY      -1.8468     YY    -176.9355
        XZ      -9.5590     YZ      -8.8782     ZZ    -183.1955

 Total job time:  332.29s(wall), 10127.97s(cpu)
        *  Thank you very much for using Q-Chem.  Have a nice day.  *
