 Q-Chem 5.4, Q-Chem, Inc., Pleasanton, CA (2021)
 Q-Chem 5.4.0 for Intel X86 EM64T Linux

User input:
--------------------------------------------------------------
$molecule
0 1
C	0.240927	-6.741404	-0.089263
C	1.467886	-6.155638	-0.535973
C	-0.777972	-5.791452	0.281103
C	1.729742	-4.803786	-0.631036
H	2.292903	-6.821518	-0.836458
C	-0.503614	-4.378638	0.181995
C	0.746756	-3.838032	-0.272725
C	-1.485437	-3.413062	0.539954
C	1.018915	-2.426473	-0.371053
C	-1.226557	-2.059348	0.446381
C	0.000000	-1.478216	0.000000
H	-2.052413	-1.394783	0.747410
C	-2.134128	-6.187987	0.772747
C	-2.829820	-3.798164	1.029154
N	-3.059182	-5.170003	1.110828
C	3.077731	-4.424987	-1.121728
C	2.375694	-2.036627	-0.864069
N	3.301101	-3.049156	-1.201928
O	-2.502830	-7.353131	0.903908
O	-3.697078	-2.986854	1.345809
O	3.934752	-5.248946	-1.434422
O	2.764177	-0.878829	-1.003943
C	-4.386939	-5.563799	1.592981
H	-4.429822	-6.664085	1.607367
H	-5.164489	-5.147101	0.924504
H	-4.553486	-5.148785	2.605446
C	4.608481	-2.587487	-1.677308
H	5.211969	-3.483329	-1.898089
H	5.094624	-1.964972	-0.902337
H	4.483092	-1.962932	-2.582098
C	0.000000	0.000000	0.000000
S	0.137535	0.781156	1.580530
C	0.421895	2.393994	0.904911
C	0.173134	0.982857	-0.985400
C	0.402294	2.283058	-0.493528
H	0.132237	0.750786	-2.059934
H	0.555196	3.150621	-1.152593
H	0.574741	3.261310	1.556025
H	0.447559	-7.361589	0.791434
H	-0.166282	-7.361192	-0.897345
H	0.368883	-1.478831	1.015049
$end

$rem
JOBTYPE		SP
EXCHANGE	HF
CORRELATION	pRIMP2
BASIS		cc-pvtz
METHOD		rimp2
AUX_BASIS	rimp2-cc-pvtz
SOLVENT_METHOD	PCM
PURECART	11111
SYMMETRY	false
MEM_TOTAL	110000
SCF_CONVERGENCE = 6
THRESH=10
GUI = 2
$end

$solvent
dielectric 4.90
$end
--------------------------------------------------------------

             Standard Nuclear Orientation (Angstroms)
    I     Atom           X                Y                Z
 ----------------------------------------------------------------
    1      C       0.2409270000    -6.7414040000    -0.0892630000
    2      C       1.4678860000    -6.1556380000    -0.5359730000
    3      C      -0.7779720000    -5.7914520000     0.2811030000
    4      C       1.7297420000    -4.8037860000    -0.6310360000
    5      H       2.2929030000    -6.8215180000    -0.8364580000
    6      C      -0.5036140000    -4.3786380000     0.1819950000
    7      C       0.7467560000    -3.8380320000    -0.2727250000
    8      C      -1.4854370000    -3.4130620000     0.5399540000
    9      C       1.0189150000    -2.4264730000    -0.3710530000
   10      C      -1.2265570000    -2.0593480000     0.4463810000
   11      C       0.0000000000    -1.4782160000     0.0000000000
   12      H      -2.0524130000    -1.3947830000     0.7474100000
   13      C      -2.1341280000    -6.1879870000     0.7727470000
   14      C      -2.8298200000    -3.7981640000     1.0291540000
   15      N      -3.0591820000    -5.1700030000     1.1108280000
   16      C       3.0777310000    -4.4249870000    -1.1217280000
   17      C       2.3756940000    -2.0366270000    -0.8640690000
   18      N       3.3011010000    -3.0491560000    -1.2019280000
   19      O      -2.5028300000    -7.3531310000     0.9039080000
   20      O      -3.6970780000    -2.9868540000     1.3458090000
   21      O       3.9347520000    -5.2489460000    -1.4344220000
   22      O       2.7641770000    -0.8788290000    -1.0039430000
   23      C      -4.3869390000    -5.5637990000     1.5929810000
   24      H      -4.4298220000    -6.6640850000     1.6073670000
   25      H      -5.1644890000    -5.1471010000     0.9245040000
   26      H      -4.5534860000    -5.1487850000     2.6054460000
   27      C       4.6084810000    -2.5874870000    -1.6773080000
   28      H       5.2119690000    -3.4833290000    -1.8980890000
   29      H       5.0946240000    -1.9649720000    -0.9023370000
   30      H       4.4830920000    -1.9629320000    -2.5820980000
   31      C       0.0000000000     0.0000000000     0.0000000000
   32      S       0.1375350000     0.7811560000     1.5805300000
   33      C       0.4218950000     2.3939940000     0.9049110000
   34      C       0.1731340000     0.9828570000    -0.9854000000
   35      C       0.4022940000     2.2830580000    -0.4935280000
   36      H       0.1322370000     0.7507860000    -2.0599340000
   37      H       0.5551960000     3.1506210000    -1.1525930000
   38      H       0.5747410000     3.2613100000     1.5560250000
   39      H       0.4475590000    -7.3615890000     0.7914340000
   40      H      -0.1662820000    -7.3611920000    -0.8973450000
   41      H       0.3688830000    -1.4788310000     1.0150490000
 ----------------------------------------------------------------

   11   -1571.7435392630      5.60e-07  Convergence criterion met
 Total energy in the final basis set =    -1571.7435392630
        RIMP2         total energy =     -1576.3981531939 a.u.

                    Orbital Energies (a.u.)
 --------------------------------------------------------------

 Alpha MOs
 -- Occupied --
-91.9933 -20.5510 -20.5443 -20.5417 -20.5403 -15.6265 -15.6211 -11.3927
-11.3850 -11.3835 -11.3789 -11.3084 -11.3082 -11.3047 -11.3046 -11.2964
-11.2929 -11.2888 -11.2828 -11.2691 -11.2680 -11.2643 -11.2627 -11.2593
-11.2527 -11.2523 -11.2507  -8.9930  -6.6738  -6.6733  -6.6727  -1.4188
 -1.4121  -1.3968  -1.3912  -1.2617  -1.2553  -1.2299  -1.1869  -1.1524
 -1.1138  -1.0868  -1.0464  -0.9962  -0.9876  -0.9841  -0.9549  -0.9508
 -0.8959  -0.8870  -0.8766  -0.8599  -0.7933  -0.7754  -0.7722  -0.7684
 -0.7401  -0.7156  -0.7038  -0.6912  -0.6766  -0.6707  -0.6673  -0.6570
 -0.6469  -0.6420  -0.6380  -0.6316  -0.6308  -0.6266  -0.6226  -0.6050
 -0.5848  -0.5747  -0.5659  -0.5609  -0.5566  -0.5511  -0.5498  -0.5477
 -0.5462  -0.5436  -0.5218  -0.5163  -0.5084  -0.4810  -0.4747  -0.4691
 -0.4574  -0.4509  -0.4426  -0.4346  -0.4130  -0.4073  -0.3562  -0.3514
 -0.3277  -0.2886

          Ground-State Mulliken Net Atomic Charges

     Atom                 Charge (a.u.)
  ----------------------------------------
      1 C                    -0.084886
      2 C                    -0.029829
      3 C                    -0.111443
      4 C                    -0.122270
      5 H                     0.198653
      6 C                     0.010018
      7 C                     0.121882
      8 C                    -0.075698
      9 C                    -0.149848
     10 C                    -0.161179
     11 C                     0.248078
     12 H                     0.194154
     13 C                     0.343835
     14 C                     0.350598
     15 N                    -0.090070
     16 C                     0.357284
     17 C                     0.350316
     18 N                    -0.089966
     19 O                    -0.494294
     20 O                    -0.507257
     21 O                    -0.501849
     22 O                    -0.468817
     23 C                    -0.204727
     24 H                     0.139356
     25 H                     0.109206
     26 H                     0.109123
     27 C                    -0.197277
     28 H                     0.133172
     29 H                     0.111679
     30 H                     0.111066
     31 C                    -0.087044
     32 S                     0.009748
     33 C                    -0.214236
     34 C                    -0.155049
     35 C                    -0.205575
     36 H                     0.185598
     37 H                     0.190637
     38 H                     0.212872
     39 H                     0.137527
     40 H                     0.137793
     41 H                     0.188717
  ----------------------------------------
  Sum of atomic charges =     0.000000

                    Cartesian Multipole Moments
 -----------------------------------------------------------------
    Charge (ESU x 10^10)
                 0.0000
    Dipole Moment (Debye)
         X       1.5055      Y       2.3778      Z      -0.6464
       Tot       2.8876
    Quadrupole Moments (Debye-Ang)
        XX    -191.8273     XY      -6.6428     YY    -177.7904
        XZ      10.9206     YZ       2.5059     ZZ    -160.1454

 Total job time:  304.61s(wall), 8582.01s(cpu)
        *  Thank you very much for using Q-Chem.  Have a nice day.  *
