 Q-Chem 5.4, Q-Chem, Inc., Pleasanton, CA (2021)
 Q-Chem 5.4.0 for Intel X86 EM64T Linux

User input:
--------------------------------------------------------------
$molecule
0 1
C	-0.086486	-6.741404	0.241938
C	-0.532960	-6.155638	1.468983
C	0.284733	-5.791452	-0.776651
C	-0.628455	-4.803786	1.730681
H	-0.833086	-6.821518	2.294130
C	0.184300	-4.378638	-0.502775
C	-0.271086	-3.838032	0.747353
C	0.541191	-3.413062	-1.484986
C	-0.370703	-2.426473	1.019042
C	0.446468	-2.059348	-1.226525
C	-0.000000	-1.478216	-0.000000
H	0.746717	-1.394783	-2.052666
C	0.779832	-6.187987	-2.131549
C	1.030596	-3.798164	-2.829295
N	1.115461	-5.170003	-3.057496
C	-1.119034	-4.424987	3.078712
C	-0.865151	-2.036627	2.375300
N	-1.201176	-3.049156	3.301374
O	0.916355	-7.353131	-2.498300
O	1.345486	-2.986854	-3.697195
O	-1.430379	-5.248946	3.936224
O	-1.007714	-0.878829	2.762805
C	1.599576	-5.563799	-4.384539
H	1.616121	-6.664085	-4.426636
H	2.611458	-5.147101	-4.550487
H	0.931037	-5.148785	-5.162921
C	-1.677382	-2.587487	4.608454
H	-1.896168	-3.483329	5.212668
H	-2.583531	-1.964972	4.482719
H	-0.903674	-1.962932	5.093988
C	0.000000	0.000000	0.000000
S	0.607475	0.509994	1.580530
C	1.862020	1.562717	0.904911
C	0.764397	0.641624	-0.985400
C	1.775697	1.490335	-0.493528
H	0.583895	0.490135	-2.059934
H	2.450484	2.056643	-1.152593
H	2.536607	2.128872	1.556025
H	-0.893959	-7.361589	-0.165874
H	0.794290	-7.361192	0.449423
H	-1.014686	-1.478831	-0.369880
$end

$rem
JOBTYPE		SP
EXCHANGE	HF
CORRELATION	pRIMP2
BASIS		cc-pvtz
METHOD		rimp2
AUX_BASIS	rimp2-cc-pvtz
SOLVENT_METHOD	PCM
PURECART	11111
SYMMETRY	false
MEM_TOTAL	110000
SCF_CONVERGENCE = 6
THRESH=10
GUI = 2
$end

$solvent
dielectric 4.90
$end
--------------------------------------------------------------

             Standard Nuclear Orientation (Angstroms)
    I     Atom           X                Y                Z
 ----------------------------------------------------------------
    1      C      -0.0864860000    -6.7414040000     0.2419380000
    2      C      -0.5329600000    -6.1556380000     1.4689830000
    3      C       0.2847330000    -5.7914520000    -0.7766510000
    4      C      -0.6284550000    -4.8037860000     1.7306810000
    5      H      -0.8330860000    -6.8215180000     2.2941300000
    6      C       0.1843000000    -4.3786380000    -0.5027750000
    7      C      -0.2710860000    -3.8380320000     0.7473530000
    8      C       0.5411910000    -3.4130620000    -1.4849860000
    9      C      -0.3707030000    -2.4264730000     1.0190420000
   10      C       0.4464680000    -2.0593480000    -1.2265250000
   11      C       0.0000000000    -1.4782160000     0.0000000000
   12      H       0.7467170000    -1.3947830000    -2.0526660000
   13      C       0.7798320000    -6.1879870000    -2.1315490000
   14      C       1.0305960000    -3.7981640000    -2.8292950000
   15      N       1.1154610000    -5.1700030000    -3.0574960000
   16      C      -1.1190340000    -4.4249870000     3.0787120000
   17      C      -0.8651510000    -2.0366270000     2.3753000000
   18      N      -1.2011760000    -3.0491560000     3.3013740000
   19      O       0.9163550000    -7.3531310000    -2.4983000000
   20      O       1.3454860000    -2.9868540000    -3.6971950000
   21      O      -1.4303790000    -5.2489460000     3.9362240000
   22      O      -1.0077140000    -0.8788290000     2.7628050000
   23      C       1.5995760000    -5.5637990000    -4.3845390000
   24      H       1.6161210000    -6.6640850000    -4.4266360000
   25      H       2.6114580000    -5.1471010000    -4.5504870000
   26      H       0.9310370000    -5.1487850000    -5.1629210000
   27      C      -1.6773820000    -2.5874870000     4.6084540000
   28      H      -1.8961680000    -3.4833290000     5.2126680000
   29      H      -2.5835310000    -1.9649720000     4.4827190000
   30      H      -0.9036740000    -1.9629320000     5.0939880000
   31      C       0.0000000000     0.0000000000     0.0000000000
   32      S       0.6074750000     0.5099940000     1.5805300000
   33      C       1.8620200000     1.5627170000     0.9049110000
   34      C       0.7643970000     0.6416240000    -0.9854000000
   35      C       1.7756970000     1.4903350000    -0.4935280000
   36      H       0.5838950000     0.4901350000    -2.0599340000
   37      H       2.4504840000     2.0566430000    -1.1525930000
   38      H       2.5366070000     2.1288720000     1.5560250000
   39      H      -0.8939590000    -7.3615890000    -0.1658740000
   40      H       0.7942900000    -7.3611920000     0.4494230000
   41      H      -1.0146860000    -1.4788310000    -0.3698800000
 ----------------------------------------------------------------

   11   -1571.6746708772      6.16e-07  Convergence criterion met
 Total energy in the final basis set =    -1571.6746708772
        RIMP2         total energy =     -1576.3504587263 a.u.

                    Orbital Energies (a.u.)
 --------------------------------------------------------------

 Alpha MOs
 -- Occupied --
-91.9774 -20.5559 -20.5448 -20.5391 -20.5389 -15.6287 -15.6199 -11.3969
-11.3855 -11.3809 -11.3775 -11.3073 -11.3060 -11.3054 -11.3030 -11.2958
-11.2846 -11.2843 -11.2746 -11.2675 -11.2653 -11.2644 -11.2637 -11.2615
-11.2587 -11.2510 -11.2480  -8.9777  -6.6581  -6.6570  -6.6565  -1.4258
 -1.4105  -1.4002  -1.3896  -1.2644  -1.2540  -1.2302  -1.1884  -1.1500
 -1.1128  -1.0837  -1.0463  -0.9961  -0.9881  -0.9854  -0.9547  -0.9482
 -0.8959  -0.8877  -0.8768  -0.8592  -0.7899  -0.7794  -0.7739  -0.7646
 -0.7324  -0.7181  -0.7021  -0.6915  -0.6849  -0.6741  -0.6674  -0.6570
 -0.6480  -0.6434  -0.6362  -0.6319  -0.6297  -0.6292  -0.6204  -0.6057
 -0.5901  -0.5735  -0.5679  -0.5637  -0.5591  -0.5531  -0.5510  -0.5475
 -0.5465  -0.5441  -0.5266  -0.5079  -0.5057  -0.4852  -0.4664  -0.4576
 -0.4529  -0.4425  -0.4358  -0.4270  -0.4085  -0.4061  -0.3558  -0.3456
 -0.3324  -0.2738

          Ground-State Mulliken Net Atomic Charges

     Atom                 Charge (a.u.)
  ----------------------------------------
      1 C                    -0.084539
      2 C                    -0.032040
      3 C                    -0.114852
      4 C                    -0.120917
      5 H                     0.198438
      6 C                     0.014497
      7 C                     0.111560
      8 C                    -0.079671
      9 C                    -0.182957
     10 C                    -0.163474
     11 C                     0.198321
     12 H                     0.184831
     13 C                     0.338995
     14 C                     0.348161
     15 N                    -0.089128
     16 C                     0.356249
     17 C                     0.377310
     18 N                    -0.089846
     19 O                    -0.498915
     20 O                    -0.513043
     21 O                    -0.500920
     22 O                    -0.477907
     23 C                    -0.205521
     24 H                     0.139384
     25 H                     0.108626
     26 H                     0.108508
     27 C                    -0.197813
     28 H                     0.134202
     29 H                     0.111733
     30 H                     0.112521
     31 C                    -0.063943
     32 S                     0.076418
     33 C                    -0.192935
     34 C                    -0.158979
     35 C                    -0.222152
     36 H                     0.185859
     37 H                     0.189089
     38 H                     0.208682
     39 H                     0.135918
     40 H                     0.136295
     41 H                     0.213959
  ----------------------------------------
  Sum of atomic charges =     0.000000

                    Cartesian Multipole Moments
 -----------------------------------------------------------------
    Charge (ESU x 10^10)
                 0.0000
    Dipole Moment (Debye)
         X       0.3921      Y       2.2919      Z       0.4334
       Tot       2.3652
    Quadrupole Moments (Debye-Ang)
        XX    -160.0463     XY      10.2611     YY    -188.6233
        XZ      11.1716     YZ      -9.0536     ZZ    -184.4778

 Total job time:  314.84s(wall), 9318.52s(cpu)
        *  Thank you very much for using Q-Chem.  Have a nice day.  *
