 Q-Chem 5.4, Q-Chem, Inc., Pleasanton, CA (2021)
 Q-Chem 5.4.0 for Intel X86 EM64T Linux

User input:
--------------------------------------------------------------
$molecule
0 1
C	-0.195868	-6.741404	0.166281
C	-1.196048	-6.155638	1.005696
C	0.634911	-5.791452	-0.530233
C	-1.409599	-4.803786	1.184587
H	-1.868538	-6.821518	1.570232
C	0.410996	-4.378638	-0.343266
C	-0.608444	-3.838032	0.511683
C	1.211179	-3.413062	-1.015440
C	-0.830559	-2.426473	0.697165
C	0.999915	-2.059348	-0.838968
C	-0.000000	-1.478216	-0.000000
H	1.673009	-1.394783	-1.404302
C	1.741129	-6.187987	-1.456059
C	2.307170	-3.798164	-1.934944
N	2.494766	-5.170003	-2.090139
C	-2.508468	-4.424987	2.106725
C	-1.936893	-2.036627	1.624494
N	-2.690936	-3.049156	2.258486
O	2.042736	-7.353131	-1.705414
O	3.013823	-2.986854	-2.529122
O	-3.206857	-5.248946	2.693680
O	-2.254108	-0.878829	1.888802
C	3.577543	-5.563799	-2.997334
H	3.612920	-6.664085	-3.025519
H	4.536833	-5.147101	-2.635109
H	3.387762	-5.148785	-4.005702
C	-3.756883	-2.587487	3.152347
H	-4.248464	-3.483329	3.566218
H	-4.478763	-1.964972	2.590383
H	-3.329599	-1.962932	3.959687
C	0.000000	0.000000	0.000000
S	0.335026	0.718942	1.580530
C	1.027130	2.203226	0.904911
C	0.421617	0.904557	-0.985400
C	0.979485	2.101144	-0.493528
H	0.322049	0.690978	-2.059934
H	1.351718	2.899571	-1.152593
H	1.399246	3.001430	1.556025
H	-0.691254	-7.361589	-0.590631
H	0.463164	-7.361192	0.786357
H	-0.693804	-1.478831	-0.827669
$end

$rem
JOBTYPE		SP
EXCHANGE	HF
CORRELATION	pRIMP2
BASIS		cc-pvtz
METHOD		rimp2
AUX_BASIS	rimp2-cc-pvtz
SOLVENT_METHOD	PCM
PURECART	11111
SYMMETRY	false
MEM_TOTAL	110000
SCF_CONVERGENCE = 6
THRESH=10
GUI = 2
$end

$solvent
dielectric 4.90
$end
--------------------------------------------------------------

             Standard Nuclear Orientation (Angstroms)
    I     Atom           X                Y                Z
 ----------------------------------------------------------------
    1      C      -0.1958680000    -6.7414040000     0.1662810000
    2      C      -1.1960480000    -6.1556380000     1.0056960000
    3      C       0.6349110000    -5.7914520000    -0.5302330000
    4      C      -1.4095990000    -4.8037860000     1.1845870000
    5      H      -1.8685380000    -6.8215180000     1.5702320000
    6      C       0.4109960000    -4.3786380000    -0.3432660000
    7      C      -0.6084440000    -3.8380320000     0.5116830000
    8      C       1.2111790000    -3.4130620000    -1.0154400000
    9      C      -0.8305590000    -2.4264730000     0.6971650000
   10      C       0.9999150000    -2.0593480000    -0.8389680000
   11      C       0.0000000000    -1.4782160000     0.0000000000
   12      H       1.6730090000    -1.3947830000    -1.4043020000
   13      C       1.7411290000    -6.1879870000    -1.4560590000
   14      C       2.3071700000    -3.7981640000    -1.9349440000
   15      N       2.4947660000    -5.1700030000    -2.0901390000
   16      C      -2.5084680000    -4.4249870000     2.1067250000
   17      C      -1.9368930000    -2.0366270000     1.6244940000
   18      N      -2.6909360000    -3.0491560000     2.2584860000
   19      O       2.0427360000    -7.3531310000    -1.7054140000
   20      O       3.0138230000    -2.9868540000    -2.5291220000
   21      O      -3.2068570000    -5.2489460000     2.6936800000
   22      O      -2.2541080000    -0.8788290000     1.8888020000
   23      C       3.5775430000    -5.5637990000    -2.9973340000
   24      H       3.6129200000    -6.6640850000    -3.0255190000
   25      H       4.5368330000    -5.1471010000    -2.6351090000
   26      H       3.3877620000    -5.1487850000    -4.0057020000
   27      C      -3.7568830000    -2.5874870000     3.1523470000
   28      H      -4.2484640000    -3.4833290000     3.5662180000
   29      H      -4.4787630000    -1.9649720000     2.5903830000
   30      H      -3.3295990000    -1.9629320000     3.9596870000
   31      C       0.0000000000     0.0000000000     0.0000000000
   32      S       0.3350260000     0.7189420000     1.5805300000
   33      C       1.0271300000     2.2032260000     0.9049110000
   34      C       0.4216170000     0.9045570000    -0.9854000000
   35      C       0.9794850000     2.1011440000    -0.4935280000
   36      H       0.3220490000     0.6909780000    -2.0599340000
   37      H       1.3517180000     2.8995710000    -1.1525930000
   38      H       1.3992460000     3.0014300000     1.5560250000
   39      H      -0.6912540000    -7.3615890000    -0.5906310000
   40      H       0.4631640000    -7.3611920000     0.7863570000
   41      H      -0.6938040000    -1.4788310000    -0.8276690000
 ----------------------------------------------------------------

   11   -1571.7357606050      5.64e-07  Convergence criterion met
 Total energy in the final basis set =    -1571.7357606050
        RIMP2         total energy =     -1576.3948697504 a.u.

                    Orbital Energies (a.u.)
 --------------------------------------------------------------

 Alpha MOs
 -- Occupied --
-91.9842 -20.5528 -20.5446 -20.5414 -20.5405 -15.6272 -15.6213 -11.3941
-11.3853 -11.3833 -11.3792 -11.3093 -11.3089 -11.3057 -11.3047 -11.2969
-11.2948 -11.2899 -11.2812 -11.2685 -11.2683 -11.2642 -11.2628 -11.2595
-11.2580 -11.2527 -11.2497  -8.9840  -6.6648  -6.6642  -6.6637  -1.4204
 -1.4121  -1.3978  -1.3913  -1.2625  -1.2554  -1.2303  -1.1871  -1.1519
 -1.1143  -1.0863  -1.0470  -0.9956  -0.9880  -0.9836  -0.9552  -0.9503
 -0.8966  -0.8882  -0.8769  -0.8599  -0.7935  -0.7770  -0.7716  -0.7631
 -0.7386  -0.7169  -0.7037  -0.6919  -0.6813  -0.6733  -0.6670  -0.6573
 -0.6472  -0.6450  -0.6367  -0.6329  -0.6309  -0.6280  -0.6212  -0.6051
 -0.5850  -0.5752  -0.5679  -0.5618  -0.5581  -0.5515  -0.5507  -0.5478
 -0.5468  -0.5439  -0.5229  -0.5122  -0.5088  -0.4816  -0.4741  -0.4602
 -0.4569  -0.4506  -0.4426  -0.4346  -0.4133  -0.4075  -0.3533  -0.3508
 -0.3301  -0.2838

          Ground-State Mulliken Net Atomic Charges

     Atom                 Charge (a.u.)
  ----------------------------------------
      1 C                    -0.084570
      2 C                    -0.030445
      3 C                    -0.111310
      4 C                    -0.124235
      5 H                     0.199104
      6 C                     0.025076
      7 C                     0.118932
      8 C                    -0.094837
      9 C                    -0.168238
     10 C                    -0.143499
     11 C                     0.193395
     12 H                     0.198191
     13 C                     0.342036
     14 C                     0.347556
     15 N                    -0.089724
     16 C                     0.357006
     17 C                     0.345874
     18 N                    -0.090866
     19 O                    -0.495199
     20 O                    -0.508436
     21 O                    -0.501256
     22 O                    -0.470951
     23 C                    -0.204940
     24 H                     0.139551
     25 H                     0.109257
     26 H                     0.108781
     27 C                    -0.197323
     28 H                     0.133285
     29 H                     0.111697
     30 H                     0.112064
     31 C                     0.008230
     32 S                     0.039018
     33 C                    -0.215030
     34 C                    -0.242193
     35 C                    -0.192581
     36 H                     0.192166
     37 H                     0.191155
     38 H                     0.209274
     39 H                     0.137383
     40 H                     0.137935
     41 H                     0.208664
  ----------------------------------------
  Sum of atomic charges =     0.000000

                    Cartesian Multipole Moments
 -----------------------------------------------------------------
    Charge (ESU x 10^10)
                 0.0000
    Dipole Moment (Debye)
         X      -0.5879      Y       2.0225      Z      -0.9306
       Tot       2.3027
    Quadrupole Moments (Debye-Ang)
        XX    -180.1373     XY      12.0944     YY    -180.0689
        XZ      16.5552     YZ      -4.2728     ZZ    -169.9795

 Total job time:  287.55s(wall), 8803.54s(cpu)
        *  Thank you very much for using Q-Chem.  Have a nice day.  *
