 Q-Chem 5.4, Q-Chem, Inc., Pleasanton, CA (2021)
 Q-Chem 5.4.0 for Intel X86 EM64T Linux

User input:
--------------------------------------------------------------
$molecule
0 1
C	0.253280	-6.741404	0.043160
C	1.539213	-6.155638	0.269777
C	-0.814295	-5.791452	-0.145543
C	1.813519	-4.803786	0.318377
H	2.403941	-6.821518	0.422058
C	-0.527140	-4.378638	-0.094194
C	0.783072	-3.838032	0.137191
C	-1.556403	-3.413062	-0.275104
C	1.067932	-2.426473	0.188116
C	-1.285420	-2.059348	-0.226701
C	0.000000	-1.478216	0.000000
H	-2.151147	-1.394783	-0.378931
C	-2.234582	-6.187987	-0.397845
C	-2.965273	-3.798164	-0.523637
N	-3.204744	-5.170003	-0.567586
C	3.226257	-4.424987	0.567421
C	2.489446	-2.036627	0.439541
N	3.459801	-3.049156	0.609650
O	-2.619468	-7.353131	-0.468608
O	-3.874668	-2.986854	-0.683034
O	4.124806	-5.248946	0.725131
O	2.895819	-0.878829	0.512648
C	-4.595691	-5.563799	-0.813908
H	-4.640022	-6.664085	-0.822891
H	-4.934830	-5.147101	-1.781600
H	-5.246157	-5.148785	-0.020360
C	4.829716	-2.587487	0.851649
H	5.462742	-3.483329	0.962191
H	4.863242	-1.964972	1.765865
H	5.173521	-1.962932	0.005383
C	0.000000	0.000000	0.000000
S	0.396411	0.687007	1.580530
C	1.215245	2.105322	0.904911
C	0.498850	0.864369	-0.985400
C	1.158885	2.007781	-0.493528
H	0.381046	0.660280	-2.059934
H	1.599289	2.770727	-1.152593
H	1.655514	2.868056	1.556025
H	-0.008120	-7.361589	0.909181
H	0.304668	-7.361192	-0.860264
H	-0.188062	-1.478831	1.063500
$end

$rem
JOBTYPE		SP
EXCHANGE	HF
CORRELATION	pRIMP2
BASIS		cc-pvtz
METHOD		rimp2
AUX_BASIS	rimp2-cc-pvtz
SOLVENT_METHOD	PCM
PURECART	11111
SYMMETRY	false
MEM_TOTAL	110000
SCF_CONVERGENCE = 6
THRESH=10
GUI = 2
$end

$solvent
dielectric 4.90
$end
--------------------------------------------------------------

             Standard Nuclear Orientation (Angstroms)
    I     Atom           X                Y                Z
 ----------------------------------------------------------------
    1      C       0.2532800000    -6.7414040000     0.0431600000
    2      C       1.5392130000    -6.1556380000     0.2697770000
    3      C      -0.8142950000    -5.7914520000    -0.1455430000
    4      C       1.8135190000    -4.8037860000     0.3183770000
    5      H       2.4039410000    -6.8215180000     0.4220580000
    6      C      -0.5271400000    -4.3786380000    -0.0941940000
    7      C       0.7830720000    -3.8380320000     0.1371910000
    8      C      -1.5564030000    -3.4130620000    -0.2751040000
    9      C       1.0679320000    -2.4264730000     0.1881160000
   10      C      -1.2854200000    -2.0593480000    -0.2267010000
   11      C       0.0000000000    -1.4782160000     0.0000000000
   12      H      -2.1511470000    -1.3947830000    -0.3789310000
   13      C      -2.2345820000    -6.1879870000    -0.3978450000
   14      C      -2.9652730000    -3.7981640000    -0.5236370000
   15      N      -3.2047440000    -5.1700030000    -0.5675860000
   16      C       3.2262570000    -4.4249870000     0.5674210000
   17      C       2.4894460000    -2.0366270000     0.4395410000
   18      N       3.4598010000    -3.0491560000     0.6096500000
   19      O      -2.6194680000    -7.3531310000    -0.4686080000
   20      O      -3.8746680000    -2.9868540000    -0.6830340000
   21      O       4.1248060000    -5.2489460000     0.7251310000
   22      O       2.8958190000    -0.8788290000     0.5126480000
   23      C      -4.5956910000    -5.5637990000    -0.8139080000
   24      H      -4.6400220000    -6.6640850000    -0.8228910000
   25      H      -4.9348300000    -5.1471010000    -1.7816000000
   26      H      -5.2461570000    -5.1487850000    -0.0203600000
   27      C       4.8297160000    -2.5874870000     0.8516490000
   28      H       5.4627420000    -3.4833290000     0.9621910000
   29      H       4.8632420000    -1.9649720000     1.7658650000
   30      H       5.1735210000    -1.9629320000     0.0053830000
   31      C       0.0000000000     0.0000000000     0.0000000000
   32      S       0.3964110000     0.6870070000     1.5805300000
   33      C       1.2152450000     2.1053220000     0.9049110000
   34      C       0.4988500000     0.8643690000    -0.9854000000
   35      C       1.1588850000     2.0077810000    -0.4935280000
   36      H       0.3810460000     0.6602800000    -2.0599340000
   37      H       1.5992890000     2.7707270000    -1.1525930000
   38      H       1.6555140000     2.8680560000     1.5560250000
   39      H      -0.0081200000    -7.3615890000     0.9091810000
   40      H       0.3046680000    -7.3611920000    -0.8602640000
   41      H      -0.1880620000    -1.4788310000     1.0635000000
 ----------------------------------------------------------------

   11   -1571.7264534943      5.66e-07  Convergence criterion met
 Total energy in the final basis set =    -1571.7264534943
        RIMP2         total energy =     -1576.3866701803 a.u.

                    Orbital Energies (a.u.)
 --------------------------------------------------------------

 Alpha MOs
 -- Occupied --
-91.9883 -20.5491 -20.5436 -20.5405 -20.5391 -15.6256 -15.6201 -11.3908
-11.3842 -11.3824 -11.3776 -11.3070 -11.3054 -11.3036 -11.3033 -11.2954
-11.2882 -11.2854 -11.2819 -11.2672 -11.2672 -11.2623 -11.2614 -11.2588
-11.2580 -11.2517 -11.2494  -8.9882  -6.6690  -6.6685  -6.6680  -1.4176
 -1.4110  -1.3958  -1.3902  -1.2607  -1.2543  -1.2282  -1.1859  -1.1513
 -1.1123  -1.0848  -1.0450  -0.9946  -0.9868  -0.9845  -0.9540  -0.9504
 -0.8943  -0.8846  -0.8756  -0.8588  -0.7903  -0.7751  -0.7736  -0.7677
 -0.7364  -0.7165  -0.7035  -0.6902  -0.6751  -0.6685  -0.6666  -0.6561
 -0.6458  -0.6395  -0.6364  -0.6308  -0.6299  -0.6255  -0.6225  -0.6035
 -0.5832  -0.5732  -0.5680  -0.5607  -0.5557  -0.5504  -0.5494  -0.5471
 -0.5464  -0.5427  -0.5185  -0.5113  -0.5053  -0.4793  -0.4717  -0.4672
 -0.4538  -0.4473  -0.4413  -0.4333  -0.4127  -0.4065  -0.3524  -0.3497
 -0.3284  -0.2890

          Ground-State Mulliken Net Atomic Charges

     Atom                 Charge (a.u.)
  ----------------------------------------
      1 C                    -0.083811
      2 C                    -0.032071
      3 C                    -0.115293
      4 C                    -0.119523
      5 H                     0.198003
      6 C                     0.009125
      7 C                     0.114818
      8 C                    -0.073468
      9 C                    -0.158949
     10 C                    -0.164393
     11 C                     0.227597
     12 H                     0.190345
     13 C                     0.342687
     14 C                     0.348812
     15 N                    -0.089789
     16 C                     0.355894
     17 C                     0.356842
     18 N                    -0.088555
     19 O                    -0.495807
     20 O                    -0.508277
     21 O                    -0.502539
     22 O                    -0.466630
     23 C                    -0.205027
     24 H                     0.139273
     25 H                     0.108736
     26 H                     0.108875
     27 C                    -0.197970
     28 H                     0.133035
     29 H                     0.110903
     30 H                     0.111009
     31 C                    -0.056093
     32 S                     0.009317
     33 C                    -0.188683
     34 C                    -0.177078
     35 C                    -0.193110
     36 H                     0.188059
     37 H                     0.190200
     38 H                     0.212689
     39 H                     0.136803
     40 H                     0.136945
     41 H                     0.187098
  ----------------------------------------
  Sum of atomic charges =     0.000000

                    Cartesian Multipole Moments
 -----------------------------------------------------------------
    Charge (ESU x 10^10)
                 0.0000
    Dipole Moment (Debye)
         X       2.2866      Y       2.8015      Z      -0.0631
       Tot       3.6168
    Quadrupole Moments (Debye-Ang)
        XX    -192.4616     XY      -3.3301     YY    -182.5542
        XZ      -5.0158     YZ      -2.0344     ZZ    -157.0647

 Total job time:  301.55s(wall), 9135.94s(cpu)
        *  Thank you very much for using Q-Chem.  Have a nice day.  *
