 Q-Chem 5.4, Q-Chem, Inc., Pleasanton, CA (2021)
 Q-Chem 5.4.0 for Intel X86 EM64T Linux

User input:
--------------------------------------------------------------
$molecule
0 1
C	0.223244	-6.741404	0.127184
C	1.354118	-6.155638	0.779949
C	-0.715408	-5.791452	-0.415271
C	1.595259	-4.803786	0.919437
H	2.114613	-6.821518	1.218801
C	-0.463133	-4.378638	-0.268806
C	0.688925	-3.838032	0.396744
C	-1.368449	-3.413062	-0.790835
C	0.939189	-2.426473	0.542026
C	-1.130363	-2.059348	-0.652669
C	-0.000000	-1.478216	-0.000000
H	-1.891815	-1.394783	-1.091814
C	-1.963749	-6.187987	-1.138124
C	-2.607351	-3.798164	-1.506241
N	-2.817348	-5.170003	-1.629443
C	2.837621	-4.424987	1.636646
C	2.188982	-2.036627	1.264474
N	3.042637	-3.049156	1.756205
O	-2.301222	-7.353131	-1.336258
O	-3.407386	-2.986854	-1.967056
O	3.628041	-5.248946	2.092167
O	2.545844	-0.878829	1.472160
C	-4.040164	-5.563799	-2.336642
H	-4.078749	-6.664085	-2.360245
H	-4.027880	-5.147101	-3.361968
H	-4.922811	-5.148785	-1.813424
C	4.247167	-2.587487	2.452149
H	4.804209	-3.483329	2.772531
H	3.965991	-1.964972	3.322697
H	4.859678	-1.962932	1.774507
C	0.000000	0.000000	0.000000
S	0.686805	0.396760	1.580530
C	2.105095	1.215640	0.904911
C	0.864201	0.499140	-0.985400
C	2.007514	1.159347	-0.493528
H	0.660136	0.381296	-2.059934
H	2.770388	1.599875	-1.152593
H	2.867745	1.656053	1.556025
H	-0.318588	-7.361589	0.851574
H	0.580522	-7.361192	-0.704181
H	-0.540459	-1.478831	0.935042
$end

$rem
JOBTYPE		SP
EXCHANGE	HF
CORRELATION	pRIMP2
BASIS		cc-pvtz
METHOD		rimp2
AUX_BASIS	rimp2-cc-pvtz
SOLVENT_METHOD	PCM
PURECART	11111
SYMMETRY	false
MEM_TOTAL	110000
SCF_CONVERGENCE = 6
THRESH=10
GUI = 2
$end

$solvent
dielectric 4.90
$end
--------------------------------------------------------------

             Standard Nuclear Orientation (Angstroms)
    I     Atom           X                Y                Z
 ----------------------------------------------------------------
    1      C       0.2232440000    -6.7414040000     0.1271840000
    2      C       1.3541180000    -6.1556380000     0.7799490000
    3      C      -0.7154080000    -5.7914520000    -0.4152710000
    4      C       1.5952590000    -4.8037860000     0.9194370000
    5      H       2.1146130000    -6.8215180000     1.2188010000
    6      C      -0.4631330000    -4.3786380000    -0.2688060000
    7      C       0.6889250000    -3.8380320000     0.3967440000
    8      C      -1.3684490000    -3.4130620000    -0.7908350000
    9      C       0.9391890000    -2.4264730000     0.5420260000
   10      C      -1.1303630000    -2.0593480000    -0.6526690000
   11      C       0.0000000000    -1.4782160000     0.0000000000
   12      H      -1.8918150000    -1.3947830000    -1.0918140000
   13      C      -1.9637490000    -6.1879870000    -1.1381240000
   14      C      -2.6073510000    -3.7981640000    -1.5062410000
   15      N      -2.8173480000    -5.1700030000    -1.6294430000
   16      C       2.8376210000    -4.4249870000     1.6366460000
   17      C       2.1889820000    -2.0366270000     1.2644740000
   18      N       3.0426370000    -3.0491560000     1.7562050000
   19      O      -2.3012220000    -7.3531310000    -1.3362580000
   20      O      -3.4073860000    -2.9868540000    -1.9670560000
   21      O       3.6280410000    -5.2489460000     2.0921670000
   22      O       2.5458440000    -0.8788290000     1.4721600000
   23      C      -4.0401640000    -5.5637990000    -2.3366420000
   24      H      -4.0787490000    -6.6640850000    -2.3602450000
   25      H      -4.0278800000    -5.1471010000    -3.3619680000
   26      H      -4.9228110000    -5.1487850000    -1.8134240000
   27      C       4.2471670000    -2.5874870000     2.4521490000
   28      H       4.8042090000    -3.4833290000     2.7725310000
   29      H       3.9659910000    -1.9649720000     3.3226970000
   30      H       4.8596780000    -1.9629320000     1.7745070000
   31      C       0.0000000000     0.0000000000     0.0000000000
   32      S       0.6868050000     0.3967600000     1.5805300000
   33      C       2.1050950000     1.2156400000     0.9049110000
   34      C       0.8642010000     0.4991400000    -0.9854000000
   35      C       2.0075140000     1.1593470000    -0.4935280000
   36      H       0.6601360000     0.3812960000    -2.0599340000
   37      H       2.7703880000     1.5998750000    -1.1525930000
   38      H       2.8677450000     1.6560530000     1.5560250000
   39      H      -0.3185880000    -7.3615890000     0.8515740000
   40      H       0.5805220000    -7.3611920000    -0.7041810000
   41      H      -0.5404590000    -1.4788310000     0.9350420000
 ----------------------------------------------------------------

   11   -1571.6075342918      9.25e-07  Convergence criterion met
 Total energy in the final basis set =    -1571.6075342918
        RIMP2         total energy =     -1576.2921050800 a.u.

                    Orbital Energies (a.u.)
 --------------------------------------------------------------

 Alpha MOs
 -- Occupied --
-91.9685 -20.5448 -20.5445 -20.5380 -20.5365 -15.6284 -15.6183 -11.3944
-11.3850 -11.3801 -11.3748 -11.3067 -11.3019 -11.3011 -11.3009 -11.3000
-11.2960 -11.2776 -11.2675 -11.2672 -11.2646 -11.2637 -11.2576 -11.2566
-11.2509 -11.2488 -11.2403  -8.9707  -6.6512  -6.6506  -6.6502  -1.4281
 -1.4088  -1.4009  -1.3879  -1.2652  -1.2525  -1.2275  -1.1869  -1.1492
 -1.1105  -1.0817  -1.0439  -0.9924  -0.9889  -0.9869  -0.9538  -0.9496
 -0.8946  -0.8807  -0.8757  -0.8577  -0.7840  -0.7791  -0.7749  -0.7698
 -0.7336  -0.7205  -0.7013  -0.6911  -0.6799  -0.6670  -0.6659  -0.6561
 -0.6508  -0.6442  -0.6350  -0.6294  -0.6292  -0.6277  -0.6229  -0.6004
 -0.5844  -0.5754  -0.5665  -0.5648  -0.5591  -0.5531  -0.5502  -0.5464
 -0.5456  -0.5420  -0.5133  -0.5086  -0.4972  -0.4809  -0.4652  -0.4610
 -0.4519  -0.4400  -0.4323  -0.4264  -0.4145  -0.4046  -0.3500  -0.3318
 -0.3079  -0.2797

          Ground-State Mulliken Net Atomic Charges

     Atom                 Charge (a.u.)
  ----------------------------------------
      1 C                    -0.084889
      2 C                    -0.031314
      3 C                    -0.120977
      4 C                    -0.115597
      5 H                     0.198108
      6 C                     0.015774
      7 C                     0.124837
      8 C                    -0.093445
      9 C                    -0.234180
     10 C                    -0.160318
     11 C                     0.220489
     12 H                     0.192023
     13 C                     0.341353
     14 C                     0.344427
     15 N                    -0.088536
     16 C                     0.353557
     17 C                     0.418378
     18 N                    -0.086240
     19 O                    -0.499708
     20 O                    -0.511460
     21 O                    -0.502368
     22 O                    -0.463621
     23 C                    -0.205703
     24 H                     0.138799
     25 H                     0.108283
     26 H                     0.108498
     27 C                    -0.197858
     28 H                     0.135310
     29 H                     0.110778
     30 H                     0.110066
     31 C                    -0.171029
     32 S                    -0.043196
     33 C                    -0.008922
     34 C                    -0.062798
     35 C                    -0.289707
     36 H                     0.194916
     37 H                     0.181795
     38 H                     0.207521
     39 H                     0.136213
     40 H                     0.136326
     41 H                     0.194418
  ----------------------------------------
  Sum of atomic charges =     0.000000

                    Cartesian Multipole Moments
 -----------------------------------------------------------------
    Charge (ESU x 10^10)
                 0.0000
    Dipole Moment (Debye)
         X       4.8315      Y       2.0958      Z       0.8424
       Tot       5.3335
    Quadrupole Moments (Debye-Ang)
        XX    -176.4796     XY      -3.1527     YY    -191.8488
        XZ     -11.4458     YZ      -6.3930     ZZ    -164.0012

 Total job time:  306.34s(wall), 8864.44s(cpu)
        *  Thank you very much for using Q-Chem.  Have a nice day.  *
