 Q-Chem 5.4, Q-Chem, Inc., Pleasanton, CA (2021)
 Q-Chem 5.4.0 for Intel X86 EM64T Linux

User input:
--------------------------------------------------------------
$molecule
0 1
C	-0.240927	-6.741404	0.089263
C	-1.467886	-6.155638	0.535973
C	0.777972	-5.791452	-0.281103
C	-1.729742	-4.803786	0.631036
H	-2.292903	-6.821518	0.836458
C	0.503614	-4.378638	-0.181995
C	-0.746756	-3.838032	0.272725
C	1.485437	-3.413062	-0.539954
C	-1.018915	-2.426473	0.371053
C	1.226557	-2.059348	-0.446381
C	0.000000	-1.478216	0.000000
H	2.052413	-1.394783	-0.747410
C	2.134128	-6.187987	-0.772747
C	2.829820	-3.798164	-1.029154
N	3.059182	-5.170003	-1.110828
C	-3.077731	-4.424987	1.121728
C	-2.375694	-2.036627	0.864069
N	-3.301101	-3.049156	1.201928
O	2.502830	-7.353131	-0.903908
O	3.697078	-2.986854	-1.345809
O	-3.934752	-5.248946	1.434422
O	-2.764177	-0.878829	1.003943
C	4.386939	-5.563799	-1.592981
H	4.429822	-6.664085	-1.607367
H	5.164489	-5.147101	-0.924504
H	4.553486	-5.148785	-2.605446
C	-4.608481	-2.587487	1.677308
H	-5.211969	-3.483329	1.898089
H	-5.094624	-1.964972	0.902337
H	-4.483092	-1.962932	2.582098
C	0.000000	0.000000	0.000000
S	0.396411	0.687007	1.580530
C	1.215245	2.105322	0.904911
C	0.498850	0.864369	-0.985400
C	1.158885	2.007781	-0.493528
H	0.381046	0.660280	-2.059934
H	1.599289	2.770727	-1.152593
H	1.655514	2.868056	1.556025
H	-0.447559	-7.361589	-0.791434
H	0.166282	-7.361192	0.897345
H	-0.368883	-1.478831	-1.015049
$end

$rem
JOBTYPE		SP
EXCHANGE	HF
CORRELATION	pRIMP2
BASIS		cc-pvtz
METHOD		rimp2
AUX_BASIS	rimp2-cc-pvtz
SOLVENT_METHOD	PCM
PURECART	11111
SYMMETRY	false
MEM_TOTAL	110000
SCF_CONVERGENCE = 6
THRESH=10
GUI = 2
$end

$solvent
dielectric 4.90
$end
--------------------------------------------------------------

             Standard Nuclear Orientation (Angstroms)
    I     Atom           X                Y                Z
 ----------------------------------------------------------------
    1      C      -0.2409270000    -6.7414040000     0.0892630000
    2      C      -1.4678860000    -6.1556380000     0.5359730000
    3      C       0.7779720000    -5.7914520000    -0.2811030000
    4      C      -1.7297420000    -4.8037860000     0.6310360000
    5      H      -2.2929030000    -6.8215180000     0.8364580000
    6      C       0.5036140000    -4.3786380000    -0.1819950000
    7      C      -0.7467560000    -3.8380320000     0.2727250000
    8      C       1.4854370000    -3.4130620000    -0.5399540000
    9      C      -1.0189150000    -2.4264730000     0.3710530000
   10      C       1.2265570000    -2.0593480000    -0.4463810000
   11      C       0.0000000000    -1.4782160000     0.0000000000
   12      H       2.0524130000    -1.3947830000    -0.7474100000
   13      C       2.1341280000    -6.1879870000    -0.7727470000
   14      C       2.8298200000    -3.7981640000    -1.0291540000
   15      N       3.0591820000    -5.1700030000    -1.1108280000
   16      C      -3.0777310000    -4.4249870000     1.1217280000
   17      C      -2.3756940000    -2.0366270000     0.8640690000
   18      N      -3.3011010000    -3.0491560000     1.2019280000
   19      O       2.5028300000    -7.3531310000    -0.9039080000
   20      O       3.6970780000    -2.9868540000    -1.3458090000
   21      O      -3.9347520000    -5.2489460000     1.4344220000
   22      O      -2.7641770000    -0.8788290000     1.0039430000
   23      C       4.3869390000    -5.5637990000    -1.5929810000
   24      H       4.4298220000    -6.6640850000    -1.6073670000
   25      H       5.1644890000    -5.1471010000    -0.9245040000
   26      H       4.5534860000    -5.1487850000    -2.6054460000
   27      C      -4.6084810000    -2.5874870000     1.6773080000
   28      H      -5.2119690000    -3.4833290000     1.8980890000
   29      H      -5.0946240000    -1.9649720000     0.9023370000
   30      H      -4.4830920000    -1.9629320000     2.5820980000
   31      C       0.0000000000     0.0000000000     0.0000000000
   32      S       0.3964110000     0.6870070000     1.5805300000
   33      C       1.2152450000     2.1053220000     0.9049110000
   34      C       0.4988500000     0.8643690000    -0.9854000000
   35      C       1.1588850000     2.0077810000    -0.4935280000
   36      H       0.3810460000     0.6602800000    -2.0599340000
   37      H       1.5992890000     2.7707270000    -1.1525930000
   38      H       1.6555140000     2.8680560000     1.5560250000
   39      H      -0.4475590000    -7.3615890000    -0.7914340000
   40      H       0.1662820000    -7.3611920000     0.8973450000
   41      H      -0.3688830000    -1.4788310000    -1.0150490000
 ----------------------------------------------------------------

   11   -1571.7363185683      5.47e-07  Convergence criterion met
 Total energy in the final basis set =    -1571.7363185683
        RIMP2         total energy =     -1576.3942569199 a.u.

                    Orbital Energies (a.u.)
 --------------------------------------------------------------

 Alpha MOs
 -- Occupied --
-91.9868 -20.5526 -20.5442 -20.5414 -20.5404 -15.6267 -15.6211 -11.3934
-11.3849 -11.3832 -11.3791 -11.3085 -11.3077 -11.3044 -11.3041 -11.2960
-11.2935 -11.2887 -11.2861 -11.2684 -11.2677 -11.2641 -11.2626 -11.2613
-11.2594 -11.2523 -11.2522  -8.9868  -6.6676  -6.6670  -6.6665  -1.4195
 -1.4120  -1.3971  -1.3912  -1.2619  -1.2553  -1.2299  -1.1880  -1.1528
 -1.1137  -1.0858  -1.0462  -0.9965  -0.9876  -0.9862  -0.9550  -0.9504
 -0.8964  -0.8874  -0.8761  -0.8591  -0.7942  -0.7766  -0.7707  -0.7641
 -0.7415  -0.7169  -0.7043  -0.6915  -0.6814  -0.6721  -0.6665  -0.6570
 -0.6468  -0.6439  -0.6361  -0.6331  -0.6306  -0.6273  -0.6213  -0.6048
 -0.5840  -0.5759  -0.5698  -0.5614  -0.5572  -0.5512  -0.5505  -0.5477
 -0.5462  -0.5435  -0.5232  -0.5126  -0.5070  -0.4814  -0.4749  -0.4616
 -0.4573  -0.4511  -0.4426  -0.4343  -0.4132  -0.4072  -0.3564  -0.3508
 -0.3299  -0.2878

          Ground-State Mulliken Net Atomic Charges

     Atom                 Charge (a.u.)
  ----------------------------------------
      1 C                    -0.084754
      2 C                    -0.032114
      3 C                    -0.111601
      4 C                    -0.120146
      5 H                     0.198685
      6 C                     0.022058
      7 C                     0.118563
      8 C                    -0.098409
      9 C                    -0.175160
     10 C                    -0.103771
     11 C                     0.147702
     12 H                     0.199462
     13 C                     0.342994
     14 C                     0.345520
     15 N                    -0.089788
     16 C                     0.356213
     17 C                     0.344749
     18 N                    -0.091988
     19 O                    -0.494979
     20 O                    -0.508027
     21 O                    -0.501444
     22 O                    -0.471607
     23 C                    -0.204970
     24 H                     0.139468
     25 H                     0.109322
     26 H                     0.108730
     27 C                    -0.197282
     28 H                     0.133063
     29 H                     0.111450
     30 H                     0.111995
     31 C                     0.041463
     32 S                     0.017222
     33 C                    -0.202457
     34 C                    -0.245839
     35 C                    -0.186164
     36 H                     0.191367
     37 H                     0.193498
     38 H                     0.211308
     39 H                     0.137103
     40 H                     0.137556
     41 H                     0.201008
  ----------------------------------------
  Sum of atomic charges =     0.000000

                    Cartesian Multipole Moments
 -----------------------------------------------------------------
    Charge (ESU x 10^10)
                 0.0000
    Dipole Moment (Debye)
         X      -0.0695      Y       2.2829      Z      -1.4829
       Tot       2.7231
    Quadrupole Moments (Debye-Ang)
        XX    -189.3221     XY      13.8769     YY    -180.8934
        XZ      11.1430     YZ      -1.2216     ZZ    -160.1589

 Total job time:  301.18s(wall), 9264.40s(cpu)
        *  Thank you very much for using Q-Chem.  Have a nice day.  *
