 Q-Chem 5.4, Q-Chem, Inc., Pleasanton, CA (2021)
 Q-Chem 5.4.0 for Intel X86 EM64T Linux

User input:
--------------------------------------------------------------
$molecule
0 1
C	0.252767	-6.741404	-0.046070
C	1.538656	-6.155638	-0.272935
C	-0.814966	-5.791452	0.141739
C	1.813042	-4.803786	-0.321083
H	2.403318	-6.821518	-0.425592
C	-0.527566	-4.378638	0.091779
C	0.782769	-3.838032	-0.138909
C	-1.556632	-3.413062	0.273808
C	1.067868	-2.426473	-0.188483
C	-1.285436	-2.059348	0.226610
C	-0.000000	-1.478216	-0.000000
H	-2.151019	-1.394783	0.379657
C	-2.235891	-6.187987	0.390420
C	-2.965540	-3.798164	0.522125
N	-3.205600	-5.170003	0.562731
C	3.225760	-4.424987	-0.570244
C	2.489646	-2.036627	-0.438407
N	3.459662	-3.049156	-0.610438
O	-2.621768	-7.353131	0.455563
O	-3.874608	-2.986854	0.683373
O	4.124059	-5.248946	-0.729367
O	2.896516	-0.878829	-0.508697
C	-4.596910	-5.563799	0.806996
H	-4.641640	-6.664085	0.813717
H	-5.246567	-5.147101	0.013655
H	-4.936739	-5.148785	1.775159
C	4.829729	-2.587487	-0.851572
H	5.462387	-3.483329	-0.964204
H	5.173914	-1.964972	-0.003956
H	4.863360	-1.962932	-1.764390
C	0.000000	0.000000	0.000000
S	-0.000201	0.793171	1.580530
C	-0.000228	2.430885	0.904911
C	-0.000168	0.997990	-0.985400
C	-0.000267	2.318231	-0.493528
H	-0.000145	0.762343	-2.059934
H	-0.000339	3.199164	-1.152593
H	-0.000311	3.311566	1.556025
H	0.303328	-7.361589	0.857128
H	-0.007933	-7.361192	-0.912587
H	0.187017	-1.478831	1.063684
$end

$rem
JOBTYPE		SP
EXCHANGE	HF
CORRELATION	pRIMP2
BASIS		cc-pvtz
METHOD		rimp2
AUX_BASIS	rimp2-cc-pvtz
SOLVENT_METHOD	PCM
PURECART	11111
SYMMETRY	false
MEM_TOTAL	110000
SCF_CONVERGENCE = 6
THRESH=10
GUI = 2
$end

$solvent
dielectric 4.90
$end
--------------------------------------------------------------

             Standard Nuclear Orientation (Angstroms)
    I     Atom           X                Y                Z
 ----------------------------------------------------------------
    1      C       0.2527670000    -6.7414040000    -0.0460700000
    2      C       1.5386560000    -6.1556380000    -0.2729350000
    3      C      -0.8149660000    -5.7914520000     0.1417390000
    4      C       1.8130420000    -4.8037860000    -0.3210830000
    5      H       2.4033180000    -6.8215180000    -0.4255920000
    6      C      -0.5275660000    -4.3786380000     0.0917790000
    7      C       0.7827690000    -3.8380320000    -0.1389090000
    8      C      -1.5566320000    -3.4130620000     0.2738080000
    9      C       1.0678680000    -2.4264730000    -0.1884830000
   10      C      -1.2854360000    -2.0593480000     0.2266100000
   11      C       0.0000000000    -1.4782160000     0.0000000000
   12      H      -2.1510190000    -1.3947830000     0.3796570000
   13      C      -2.2358910000    -6.1879870000     0.3904200000
   14      C      -2.9655400000    -3.7981640000     0.5221250000
   15      N      -3.2056000000    -5.1700030000     0.5627310000
   16      C       3.2257600000    -4.4249870000    -0.5702440000
   17      C       2.4896460000    -2.0366270000    -0.4384070000
   18      N       3.4596620000    -3.0491560000    -0.6104380000
   19      O      -2.6217680000    -7.3531310000     0.4555630000
   20      O      -3.8746080000    -2.9868540000     0.6833730000
   21      O       4.1240590000    -5.2489460000    -0.7293670000
   22      O       2.8965160000    -0.8788290000    -0.5086970000
   23      C      -4.5969100000    -5.5637990000     0.8069960000
   24      H      -4.6416400000    -6.6640850000     0.8137170000
   25      H      -5.2465670000    -5.1471010000     0.0136550000
   26      H      -4.9367390000    -5.1487850000     1.7751590000
   27      C       4.8297290000    -2.5874870000    -0.8515720000
   28      H       5.4623870000    -3.4833290000    -0.9642040000
   29      H       5.1739140000    -1.9649720000    -0.0039560000
   30      H       4.8633600000    -1.9629320000    -1.7643900000
   31      C       0.0000000000     0.0000000000     0.0000000000
   32      S      -0.0002010000     0.7931710000     1.5805300000
   33      C      -0.0002280000     2.4308850000     0.9049110000
   34      C      -0.0001680000     0.9979900000    -0.9854000000
   35      C      -0.0002670000     2.3182310000    -0.4935280000
   36      H      -0.0001450000     0.7623430000    -2.0599340000
   37      H      -0.0003390000     3.1991640000    -1.1525930000
   38      H      -0.0003110000     3.3115660000     1.5560250000
   39      H       0.3033280000    -7.3615890000     0.8571280000
   40      H      -0.0079330000    -7.3611920000    -0.9125870000
   41      H       0.1870170000    -1.4788310000     1.0636840000
 ----------------------------------------------------------------

   11   -1571.7467173246      5.56e-07  Convergence criterion met
 Total energy in the final basis set =    -1571.7467173246
        RIMP2         total energy =     -1576.4004087110 a.u.

                    Orbital Energies (a.u.)
 --------------------------------------------------------------

 Alpha MOs
 -- Occupied --
-91.9941 -20.5517 -20.5444 -20.5421 -20.5407 -15.6267 -15.6214 -11.3930
-11.3851 -11.3839 -11.3793 -11.3089 -11.3085 -11.3049 -11.3046 -11.2965
-11.2952 -11.2896 -11.2822 -11.2698 -11.2681 -11.2649 -11.2626 -11.2595
-11.2529 -11.2523 -11.2511  -8.9936  -6.6745  -6.6740  -6.6734  -1.4191
 -1.4124  -1.3969  -1.3916  -1.2619  -1.2556  -1.2302  -1.1871  -1.1527
 -1.1142  -1.0871  -1.0467  -0.9964  -0.9877  -0.9845  -0.9550  -0.9511
 -0.8963  -0.8875  -0.8767  -0.8600  -0.7938  -0.7758  -0.7732  -0.7687
 -0.7395  -0.7161  -0.7042  -0.6915  -0.6775  -0.6706  -0.6676  -0.6572
 -0.6471  -0.6413  -0.6382  -0.6320  -0.6310  -0.6270  -0.6228  -0.6053
 -0.5848  -0.5753  -0.5661  -0.5612  -0.5570  -0.5512  -0.5502  -0.5480
 -0.5459  -0.5437  -0.5206  -0.5182  -0.5089  -0.4810  -0.4750  -0.4696
 -0.4580  -0.4512  -0.4429  -0.4349  -0.4132  -0.4076  -0.3575  -0.3511
 -0.3274  -0.2909

          Ground-State Mulliken Net Atomic Charges

     Atom                 Charge (a.u.)
  ----------------------------------------
      1 C                    -0.084664
      2 C                    -0.030249
      3 C                    -0.110236
      4 C                    -0.121554
      5 H                     0.198686
      6 C                     0.011016
      7 C                     0.123039
      8 C                    -0.084721
      9 C                    -0.172991
     10 C                    -0.132675
     11 C                     0.240439
     12 H                     0.194417
     13 C                     0.343716
     14 C                     0.350426
     15 N                    -0.090433
     16 C                     0.357558
     17 C                     0.348133
     18 N                    -0.091743
     19 O                    -0.493634
     20 O                    -0.506937
     21 O                    -0.501782
     22 O                    -0.470974
     23 C                    -0.204717
     24 H                     0.139487
     25 H                     0.109229
     26 H                     0.109184
     27 C                    -0.197007
     28 H                     0.133076
     29 H                     0.111734
     30 H                     0.111446
     31 C                    -0.067316
     32 S                     0.011190
     33 C                    -0.217145
     34 C                    -0.163365
     35 C                    -0.204909
     36 H                     0.187843
     37 H                     0.191356
     38 H                     0.212786
     39 H                     0.137766
     40 H                     0.137939
     41 H                     0.186585
  ----------------------------------------
  Sum of atomic charges =     0.000000

                    Cartesian Multipole Moments
 -----------------------------------------------------------------
    Charge (ESU x 10^10)
                 0.0000
    Dipole Moment (Debye)
         X       0.9737      Y       2.2739      Z      -0.4000
       Tot       2.5057
    Quadrupole Moments (Debye-Ang)
        XX    -194.9668     XY      -8.6423     YY    -176.8140
        XZ       5.7856     YZ       0.9993     ZZ    -157.1894

 Total job time:  293.10s(wall), 8673.78s(cpu)
        *  Thank you very much for using Q-Chem.  Have a nice day.  *
