 Q-Chem 5.4, Q-Chem, Inc., Pleasanton, CA (2021)
 Q-Chem 5.4.0 for Intel X86 EM64T Linux

User input:
--------------------------------------------------------------
$molecule
0 1
C	0.195868	-6.741404	-0.166281
C	1.196048	-6.155638	-1.005696
C	-0.634911	-5.791452	0.530233
C	1.409599	-4.803786	-1.184587
H	1.868538	-6.821518	-1.570232
C	-0.410996	-4.378638	0.343266
C	0.608444	-3.838032	-0.511683
C	-1.211179	-3.413062	1.015440
C	0.830559	-2.426473	-0.697165
C	-0.999915	-2.059348	0.838968
C	-0.000000	-1.478216	-0.000000
H	-1.673009	-1.394783	1.404302
C	-1.741129	-6.187987	1.456059
C	-2.307170	-3.798164	1.934944
N	-2.494766	-5.170003	2.090139
C	2.508468	-4.424987	-2.106725
C	1.936893	-2.036627	-1.624494
N	2.690936	-3.049156	-2.258486
O	-2.042736	-7.353131	1.705414
O	-3.013823	-2.986854	2.529122
O	3.206857	-5.248946	-2.693680
O	2.254108	-0.878829	-1.888802
C	-3.577543	-5.563799	2.997334
H	-3.612920	-6.664085	3.025519
H	-4.536833	-5.147101	2.635109
H	-3.387762	-5.148785	4.005702
C	3.756883	-2.587487	-3.152347
H	4.248464	-3.483329	-3.566218
H	4.478763	-1.964972	-2.590383
H	3.329599	-1.962932	-3.959687
C	0.000000	0.000000	0.000000
S	0.271091	0.745405	1.580530
C	0.831198	2.284363	0.904911
C	0.341175	0.937861	-0.985400
C	0.792631	2.178516	-0.493528
H	0.260601	0.716417	-2.059934
H	1.093860	3.006347	-1.152593
H	1.132330	3.111961	1.556025
H	0.691254	-7.361589	0.590631
H	-0.463164	-7.361192	-0.786357
H	0.693804	-1.478831	0.827669
$end

$rem
JOBTYPE		SP
EXCHANGE	HF
CORRELATION	pRIMP2
BASIS		cc-pvtz
METHOD		rimp2
AUX_BASIS	rimp2-cc-pvtz
SOLVENT_METHOD	PCM
PURECART	11111
SYMMETRY	false
MEM_TOTAL	110000
SCF_CONVERGENCE = 6
THRESH=10
GUI = 2
$end

$solvent
dielectric 4.90
$end
--------------------------------------------------------------

             Standard Nuclear Orientation (Angstroms)
    I     Atom           X                Y                Z
 ----------------------------------------------------------------
    1      C       0.1958680000    -6.7414040000    -0.1662810000
    2      C       1.1960480000    -6.1556380000    -1.0056960000
    3      C      -0.6349110000    -5.7914520000     0.5302330000
    4      C       1.4095990000    -4.8037860000    -1.1845870000
    5      H       1.8685380000    -6.8215180000    -1.5702320000
    6      C      -0.4109960000    -4.3786380000     0.3432660000
    7      C       0.6084440000    -3.8380320000    -0.5116830000
    8      C      -1.2111790000    -3.4130620000     1.0154400000
    9      C       0.8305590000    -2.4264730000    -0.6971650000
   10      C      -0.9999150000    -2.0593480000     0.8389680000
   11      C       0.0000000000    -1.4782160000     0.0000000000
   12      H      -1.6730090000    -1.3947830000     1.4043020000
   13      C      -1.7411290000    -6.1879870000     1.4560590000
   14      C      -2.3071700000    -3.7981640000     1.9349440000
   15      N      -2.4947660000    -5.1700030000     2.0901390000
   16      C       2.5084680000    -4.4249870000    -2.1067250000
   17      C       1.9368930000    -2.0366270000    -1.6244940000
   18      N       2.6909360000    -3.0491560000    -2.2584860000
   19      O      -2.0427360000    -7.3531310000     1.7054140000
   20      O      -3.0138230000    -2.9868540000     2.5291220000
   21      O       3.2068570000    -5.2489460000    -2.6936800000
   22      O       2.2541080000    -0.8788290000    -1.8888020000
   23      C      -3.5775430000    -5.5637990000     2.9973340000
   24      H      -3.6129200000    -6.6640850000     3.0255190000
   25      H      -4.5368330000    -5.1471010000     2.6351090000
   26      H      -3.3877620000    -5.1487850000     4.0057020000
   27      C       3.7568830000    -2.5874870000    -3.1523470000
   28      H       4.2484640000    -3.4833290000    -3.5662180000
   29      H       4.4787630000    -1.9649720000    -2.5903830000
   30      H       3.3295990000    -1.9629320000    -3.9596870000
   31      C       0.0000000000     0.0000000000     0.0000000000
   32      S       0.2710910000     0.7454050000     1.5805300000
   33      C       0.8311980000     2.2843630000     0.9049110000
   34      C       0.3411750000     0.9378610000    -0.9854000000
   35      C       0.7926310000     2.1785160000    -0.4935280000
   36      H       0.2606010000     0.7164170000    -2.0599340000
   37      H       1.0938600000     3.0063470000    -1.1525930000
   38      H       1.1323300000     3.1119610000     1.5560250000
   39      H       0.6912540000    -7.3615890000     0.5906310000
   40      H      -0.4631640000    -7.3611920000    -0.7863570000
   41      H       0.6938040000    -1.4788310000     0.8276690000
 ----------------------------------------------------------------

   11   -1571.7349517114      5.72e-07  Convergence criterion met
 Total energy in the final basis set =    -1571.7349517114
        RIMP2         total energy =     -1576.3921068185 a.u.

                    Orbital Energies (a.u.)
 --------------------------------------------------------------

 Alpha MOs
 -- Occupied --
-91.9902 -20.5504 -20.5445 -20.5414 -20.5403 -15.6269 -15.6210 -11.3932
-11.3851 -11.3832 -11.3788 -11.3082 -11.3074 -11.3051 -11.3044 -11.2963
-11.2893 -11.2878 -11.2836 -11.2686 -11.2680 -11.2646 -11.2632 -11.2592
-11.2525 -11.2520 -11.2493  -8.9902  -6.6711  -6.6706  -6.6700  -1.4194
 -1.4119  -1.3972  -1.3911  -1.2621  -1.2552  -1.2300  -1.1871  -1.1517
 -1.1137  -1.0864  -1.0465  -0.9958  -0.9877  -0.9834  -0.9549  -0.9501
 -0.8958  -0.8870  -0.8768  -0.8600  -0.7928  -0.7759  -0.7709  -0.7666
 -0.7407  -0.7154  -0.7027  -0.6903  -0.6767  -0.6720  -0.6669  -0.6570
 -0.6470  -0.6441  -0.6378  -0.6313  -0.6306  -0.6269  -0.6225  -0.6048
 -0.5860  -0.5731  -0.5659  -0.5603  -0.5566  -0.5514  -0.5495  -0.5475
 -0.5474  -0.5435  -0.5222  -0.5148  -0.5078  -0.4821  -0.4747  -0.4672
 -0.4571  -0.4511  -0.4426  -0.4345  -0.4132  -0.4073  -0.3530  -0.3526
 -0.3288  -0.2831

          Ground-State Mulliken Net Atomic Charges

     Atom                 Charge (a.u.)
  ----------------------------------------
      1 C                    -0.085347
      2 C                    -0.029631
      3 C                    -0.113090
      4 C                    -0.125959
      5 H                     0.198594
      6 C                     0.014038
      7 C                     0.126121
      8 C                    -0.064722
      9 C                    -0.153417
     10 C                    -0.181691
     11 C                     0.234141
     12 H                     0.192006
     13 C                     0.344332
     14 C                     0.347595
     15 N                    -0.089487
     16 C                     0.357411
     17 C                     0.364174
     18 N                    -0.088607
     19 O                    -0.494831
     20 O                    -0.506968
     21 O                    -0.501876
     22 O                    -0.471926
     23 C                    -0.204766
     24 H                     0.139365
     25 H                     0.109121
     26 H                     0.109106
     27 C                    -0.197582
     28 H                     0.133574
     29 H                     0.111565
     30 H                     0.110830
     31 C                    -0.083459
     32 S                     0.007371
     33 C                    -0.213788
     34 C                    -0.150734
     35 C                    -0.201171
     36 H                     0.182550
     37 H                     0.190301
     38 H                     0.212898
     39 H                     0.137351
     40 H                     0.137684
     41 H                     0.198925
  ----------------------------------------
  Sum of atomic charges =     0.000000

                    Cartesian Multipole Moments
 -----------------------------------------------------------------
    Charge (ESU x 10^10)
                 0.0000
    Dipole Moment (Debye)
         X       2.0841      Y       2.3381      Z      -1.2512
       Tot       3.3727
    Quadrupole Moments (Debye-Ang)
        XX    -180.7833     XY      -3.8467     YY    -179.3557
        XZ      16.5819     YZ       5.2439     ZZ    -170.1266

 Total job time:  291.08s(wall), 8851.12s(cpu)
        *  Thank you very much for using Q-Chem.  Have a nice day.  *
