 Q-Chem 5.4, Q-Chem, Inc., Pleasanton, CA (2021)
 Q-Chem 5.4.0 for Intel X86 EM64T Linux

User input:
--------------------------------------------------------------
$molecule
0 1
C	0.086486	-6.741404	-0.241938
C	0.532960	-6.155638	-1.468983
C	-0.284733	-5.791452	0.776651
C	0.628455	-4.803786	-1.730681
H	0.833086	-6.821518	-2.294130
C	-0.184300	-4.378638	0.502775
C	0.271086	-3.838032	-0.747353
C	-0.541191	-3.413062	1.484986
C	0.370703	-2.426473	-1.019042
C	-0.446468	-2.059348	1.226525
C	-0.000000	-1.478216	-0.000000
H	-0.746717	-1.394783	2.052666
C	-0.779832	-6.187987	2.131549
C	-1.030596	-3.798164	2.829295
N	-1.115461	-5.170003	3.057496
C	1.119034	-4.424987	-3.078712
C	0.865151	-2.036627	-2.375300
N	1.201176	-3.049156	-3.301374
O	-0.916355	-7.353131	2.498300
O	-1.345486	-2.986854	3.697195
O	1.430379	-5.248946	-3.936224
O	1.007714	-0.878829	-2.762805
C	-1.599576	-5.563799	4.384539
H	-1.616121	-6.664085	4.426636
H	-2.611458	-5.147101	4.550487
H	-0.931037	-5.148785	5.162921
C	1.677382	-2.587487	-4.608454
H	1.896168	-3.483329	-5.212668
H	2.583531	-1.964972	-4.482719
H	0.903674	-1.962932	-5.093988
C	0.000000	0.000000	0.000000
S	0.607475	0.509994	1.580530
C	1.862020	1.562717	0.904911
C	0.764397	0.641624	-0.985400
C	1.775697	1.490335	-0.493528
H	0.583895	0.490135	-2.059934
H	2.450484	2.056643	-1.152593
H	2.536607	2.128872	1.556025
H	0.893959	-7.361589	0.165874
H	-0.794290	-7.361192	-0.449423
H	1.014686	-1.478831	0.369880
$end

$rem
JOBTYPE		SP
EXCHANGE	HF
CORRELATION	pRIMP2
BASIS		cc-pvtz
METHOD		rimp2
AUX_BASIS	rimp2-cc-pvtz
SOLVENT_METHOD	PCM
PURECART	11111
SYMMETRY	false
MEM_TOTAL	110000
SCF_CONVERGENCE = 6
THRESH=10
GUI = 2
$end

$solvent
dielectric 4.90
$end
--------------------------------------------------------------

             Standard Nuclear Orientation (Angstroms)
    I     Atom           X                Y                Z
 ----------------------------------------------------------------
    1      C       0.0864860000    -6.7414040000    -0.2419380000
    2      C       0.5329600000    -6.1556380000    -1.4689830000
    3      C      -0.2847330000    -5.7914520000     0.7766510000
    4      C       0.6284550000    -4.8037860000    -1.7306810000
    5      H       0.8330860000    -6.8215180000    -2.2941300000
    6      C      -0.1843000000    -4.3786380000     0.5027750000
    7      C       0.2710860000    -3.8380320000    -0.7473530000
    8      C      -0.5411910000    -3.4130620000     1.4849860000
    9      C       0.3707030000    -2.4264730000    -1.0190420000
   10      C      -0.4464680000    -2.0593480000     1.2265250000
   11      C       0.0000000000    -1.4782160000     0.0000000000
   12      H      -0.7467170000    -1.3947830000     2.0526660000
   13      C      -0.7798320000    -6.1879870000     2.1315490000
   14      C      -1.0305960000    -3.7981640000     2.8292950000
   15      N      -1.1154610000    -5.1700030000     3.0574960000
   16      C       1.1190340000    -4.4249870000    -3.0787120000
   17      C       0.8651510000    -2.0366270000    -2.3753000000
   18      N       1.2011760000    -3.0491560000    -3.3013740000
   19      O      -0.9163550000    -7.3531310000     2.4983000000
   20      O      -1.3454860000    -2.9868540000     3.6971950000
   21      O       1.4303790000    -5.2489460000    -3.9362240000
   22      O       1.0077140000    -0.8788290000    -2.7628050000
   23      C      -1.5995760000    -5.5637990000     4.3845390000
   24      H      -1.6161210000    -6.6640850000     4.4266360000
   25      H      -2.6114580000    -5.1471010000     4.5504870000
   26      H      -0.9310370000    -5.1487850000     5.1629210000
   27      C       1.6773820000    -2.5874870000    -4.6084540000
   28      H       1.8961680000    -3.4833290000    -5.2126680000
   29      H       2.5835310000    -1.9649720000    -4.4827190000
   30      H       0.9036740000    -1.9629320000    -5.0939880000
   31      C       0.0000000000     0.0000000000     0.0000000000
   32      S       0.6074750000     0.5099940000     1.5805300000
   33      C       1.8620200000     1.5627170000     0.9049110000
   34      C       0.7643970000     0.6416240000    -0.9854000000
   35      C       1.7756970000     1.4903350000    -0.4935280000
   36      H       0.5838950000     0.4901350000    -2.0599340000
   37      H       2.4504840000     2.0566430000    -1.1525930000
   38      H       2.5366070000     2.1288720000     1.5560250000
   39      H       0.8939590000    -7.3615890000     0.1658740000
   40      H      -0.7942900000    -7.3611920000    -0.4494230000
   41      H       1.0146860000    -1.4788310000     0.3698800000
 ----------------------------------------------------------------

   11   -1571.6609371355      5.54e-07  Convergence criterion met
 Total energy in the final basis set =    -1571.6609371355
        RIMP2         total energy =     -1576.3325705192 a.u.

                    Orbital Energies (a.u.)
 --------------------------------------------------------------

 Alpha MOs
 -- Occupied --
-91.9812 -20.5527 -20.5462 -20.5404 -20.5394 -15.6309 -15.6202 -11.4015
-11.3868 -11.3823 -11.3777 -11.3073 -11.3050 -11.3042 -11.3036 -11.2965
-11.2941 -11.2840 -11.2699 -11.2682 -11.2674 -11.2654 -11.2633 -11.2586
-11.2522 -11.2460 -11.2421  -8.9827  -6.6635  -6.6628  -6.6623  -1.4295
 -1.4111  -1.4022  -1.3902  -1.2670  -1.2546  -1.2318  -1.1908  -1.1495
 -1.1131  -1.0842  -1.0471  -0.9973  -0.9887  -0.9865  -0.9554  -0.9473
 -0.8981  -0.8870  -0.8778  -0.8605  -0.7916  -0.7813  -0.7741  -0.7631
 -0.7390  -0.7337  -0.7026  -0.6878  -0.6800  -0.6745  -0.6675  -0.6577
 -0.6490  -0.6475  -0.6368  -0.6315  -0.6311  -0.6305  -0.6235  -0.6038
 -0.5909  -0.5687  -0.5673  -0.5633  -0.5570  -0.5535  -0.5519  -0.5479
 -0.5468  -0.5419  -0.5165  -0.5120  -0.5041  -0.4766  -0.4713  -0.4621
 -0.4551  -0.4436  -0.4368  -0.4351  -0.4179  -0.4068  -0.3572  -0.3439
 -0.3314  -0.2742

          Ground-State Mulliken Net Atomic Charges

     Atom                 Charge (a.u.)
  ----------------------------------------
      1 C                    -0.084500
      2 C                    -0.031483
      3 C                    -0.113656
      4 C                    -0.118458
      5 H                     0.198394
      6 C                     0.016917
      7 C                     0.126824
      8 C                    -0.070477
      9 C                    -0.203124
     10 C                    -0.133398
     11 C                     0.164064
     12 H                     0.181271
     13 C                     0.342215
     14 C                     0.345918
     15 N                    -0.089809
     16 C                     0.357764
     17 C                     0.396085
     18 N                    -0.085787
     19 O                    -0.496133
     20 O                    -0.507988
     21 O                    -0.499540
     22 O                    -0.466134
     23 C                    -0.205260
     24 H                     0.139162
     25 H                     0.109145
     26 H                     0.109025
     27 C                    -0.199619
     28 H                     0.135241
     29 H                     0.111652
     30 H                     0.112750
     31 C                    -0.074891
     32 S                    -0.017631
     33 C                    -0.176323
     34 C                    -0.150287
     35 C                    -0.229932
     36 H                     0.228533
     37 H                     0.191655
     38 H                     0.214965
     39 H                     0.137014
     40 H                     0.137501
     41 H                     0.198335
  ----------------------------------------
  Sum of atomic charges =     0.000000

                    Cartesian Multipole Moments
 -----------------------------------------------------------------
    Charge (ESU x 10^10)
                 0.0000
    Dipole Moment (Debye)
         X       3.3840      Y       1.8319      Z      -2.6601
       Tot       4.6780
    Quadrupole Moments (Debye-Ang)
        XX    -159.3459     XY       1.3392     YY    -184.9146
        XZ      10.5044     YZ       9.4535     ZZ    -184.2751

 Total job time:  313.63s(wall), 9278.78s(cpu)
        *  Thank you very much for using Q-Chem.  Have a nice day.  *
