 Q-Chem 5.4, Q-Chem, Inc., Pleasanton, CA (2021)
 Q-Chem 5.4.0 for Intel X86 EM64T Linux

User input:
--------------------------------------------------------------
$molecule
0 1
C	0.586080	-6.715879	-0.256927
C	0.534902	-6.132354	-1.562675
C	0.502834	-5.769583	0.827197
C	0.417309	-4.785626	-1.841253
H	0.592747	-6.795716	-2.440709
C	0.380402	-4.362083	0.535488
C	0.333638	-3.823504	-0.794999
C	0.296812	-3.400131	1.580529
C	0.211295	-2.417255	-1.084374
C	0.179438	-2.051515	1.305258
C	0.128835	-1.472591	0.000000
H	0.121931	-1.389444	2.184267
C	0.535563	-6.164769	2.269719
C	0.330267	-3.783778	3.011152
N	0.448140	-5.150545	3.254617
C	0.384235	-4.408274	-3.275775
C	0.178078	-2.028827	-2.527951
N	0.265353	-3.037588	-3.513104
O	0.634270	-7.325728	2.661046
O	0.260493	-2.975473	3.934410
O	0.455333	-5.229160	-4.188059
O	0.078594	-0.875310	-2.940845
C	0.481421	-5.542933	4.667206
H	0.576173	-6.639132	4.712423
H	-0.445595	-5.205747	5.169231
H	1.336290	-5.051542	5.169992
C	0.225553	-2.577637	-4.904229
H	0.302574	-3.470163	-5.546833
H	1.062399	-1.879530	-5.095998
H	-0.718592	-2.033299	-5.095858
C	0.000000	0.000000	0.000000
S	-0.000201	0.793171	1.580530
C	-0.000228	2.430885	0.904911
C	-0.000168	0.997990	-0.985400
C	-0.000267	2.318231	-0.493528
H	-0.000145	0.762343	-2.059934
H	-0.000339	3.199164	-1.152593
H	-0.000311	3.311566	1.556025
H	1.534971	-7.255416	-0.149881
H	-0.255105	-7.411629	-0.150656
H	1.204779	-1.379075	0.000531
$end

$rem
JOBTYPE		SP
EXCHANGE	HF
CORRELATION	pRIMP2
BASIS		cc-pvtz
METHOD		rimp2
AUX_BASIS	rimp2-cc-pvtz
SOLVENT_METHOD	PCM
PURECART	11111
SYMMETRY	false
MEM_TOTAL	110000
SCF_CONVERGENCE = 6
THRESH=10
GUI = 2
$end

$solvent
dielectric 4.90
$end
--------------------------------------------------------------

             Standard Nuclear Orientation (Angstroms)
    I     Atom           X                Y                Z
 ----------------------------------------------------------------
    1      C       0.5860800000    -6.7158790000    -0.2569270000
    2      C       0.5349020000    -6.1323540000    -1.5626750000
    3      C       0.5028340000    -5.7695830000     0.8271970000
    4      C       0.4173090000    -4.7856260000    -1.8412530000
    5      H       0.5927470000    -6.7957160000    -2.4407090000
    6      C       0.3804020000    -4.3620830000     0.5354880000
    7      C       0.3336380000    -3.8235040000    -0.7949990000
    8      C       0.2968120000    -3.4001310000     1.5805290000
    9      C       0.2112950000    -2.4172550000    -1.0843740000
   10      C       0.1794380000    -2.0515150000     1.3052580000
   11      C       0.1288350000    -1.4725910000     0.0000000000
   12      H       0.1219310000    -1.3894440000     2.1842670000
   13      C       0.5355630000    -6.1647690000     2.2697190000
   14      C       0.3302670000    -3.7837780000     3.0111520000
   15      N       0.4481400000    -5.1505450000     3.2546170000
   16      C       0.3842350000    -4.4082740000    -3.2757750000
   17      C       0.1780780000    -2.0288270000    -2.5279510000
   18      N       0.2653530000    -3.0375880000    -3.5131040000
   19      O       0.6342700000    -7.3257280000     2.6610460000
   20      O       0.2604930000    -2.9754730000     3.9344100000
   21      O       0.4553330000    -5.2291600000    -4.1880590000
   22      O       0.0785940000    -0.8753100000    -2.9408450000
   23      C       0.4814210000    -5.5429330000     4.6672060000
   24      H       0.5761730000    -6.6391320000     4.7124230000
   25      H      -0.4455950000    -5.2057470000     5.1692310000
   26      H       1.3362900000    -5.0515420000     5.1699920000
   27      C       0.2255530000    -2.5776370000    -4.9042290000
   28      H       0.3025740000    -3.4701630000    -5.5468330000
   29      H       1.0623990000    -1.8795300000    -5.0959980000
   30      H      -0.7185920000    -2.0332990000    -5.0958580000
   31      C       0.0000000000     0.0000000000     0.0000000000
   32      S      -0.0002010000     0.7931710000     1.5805300000
   33      C      -0.0002280000     2.4308850000     0.9049110000
   34      C      -0.0001680000     0.9979900000    -0.9854000000
   35      C      -0.0002670000     2.3182310000    -0.4935280000
   36      H      -0.0001450000     0.7623430000    -2.0599340000
   37      H      -0.0003390000     3.1991640000    -1.1525930000
   38      H      -0.0003110000     3.3115660000     1.5560250000
   39      H       1.5349710000    -7.2554160000    -0.1498810000
   40      H      -0.2551050000    -7.4116290000    -0.1506560000
   41      H       1.2047790000    -1.3790750000     0.0005310000
 ----------------------------------------------------------------

   11   -1571.7334306176      5.94e-07  Convergence criterion met
 Total energy in the final basis set =    -1571.7334306176
        RIMP2         total energy =     -1576.3919105573 a.u.

                    Orbital Energies (a.u.)
 --------------------------------------------------------------

 Alpha MOs
 -- Occupied --
-91.9894 -20.5541 -20.5461 -20.5428 -20.5418 -15.6295 -15.6222 -11.3984
-11.3868 -11.3846 -11.3803 -11.3106 -11.3101 -11.3069 -11.3058 -11.2985
-11.2981 -11.2930 -11.2737 -11.2711 -11.2695 -11.2679 -11.2645 -11.2598
-11.2540 -11.2459 -11.2344  -8.9894  -6.6703  -6.6698  -6.6691  -1.4243
 -1.4132  -1.4004  -1.3924  -1.2651  -1.2565  -1.2323  -1.1878  -1.1501
 -1.1159  -1.0879  -1.0493  -0.9957  -0.9890  -0.9814  -0.9562  -0.9495
 -0.8986  -0.8915  -0.8787  -0.8621  -0.7955  -0.7814  -0.7733  -0.7585
 -0.7401  -0.7211  -0.7025  -0.6899  -0.6829  -0.6748  -0.6689  -0.6586
 -0.6497  -0.6476  -0.6389  -0.6327  -0.6320  -0.6299  -0.6245  -0.6057
 -0.5933  -0.5714  -0.5637  -0.5607  -0.5576  -0.5526  -0.5520  -0.5494
 -0.5486  -0.5429  -0.5168  -0.5151  -0.5127  -0.4868  -0.4745  -0.4593
 -0.4582  -0.4498  -0.4433  -0.4369  -0.4163  -0.4086  -0.3579  -0.3495
 -0.3319  -0.2781

          Ground-State Mulliken Net Atomic Charges

     Atom                 Charge (a.u.)
  ----------------------------------------
      1 C                    -0.083939
      2 C                    -0.031512
      3 C                    -0.102985
      4 C                    -0.121978
      5 H                     0.199351
      6 C                     0.025223
      7 C                     0.114640
      8 C                    -0.038287
      9 C                    -0.199091
     10 C                    -0.167949
     11 C                     0.174765
     12 H                     0.183366
     13 C                     0.341940
     14 C                     0.349058
     15 N                    -0.090054
     16 C                     0.358528
     17 C                     0.388880
     18 N                    -0.087093
     19 O                    -0.493091
     20 O                    -0.505977
     21 O                    -0.500266
     22 O                    -0.481852
     23 C                    -0.204632
     24 H                     0.139573
     25 H                     0.109795
     26 H                     0.109477
     27 C                    -0.198610
     28 H                     0.134567
     29 H                     0.111680
     30 H                     0.112400
     31 C                    -0.022901
     32 S                    -0.015022
     33 C                    -0.236343
     34 C                    -0.164099
     35 C                    -0.240039
     36 H                     0.228967
     37 H                     0.189471
     38 H                     0.215572
     39 H                     0.138415
     40 H                     0.138705
     41 H                     0.221342
  ----------------------------------------
  Sum of atomic charges =     0.000000

                    Cartesian Multipole Moments
 -----------------------------------------------------------------
    Charge (ESU x 10^10)
                -0.0000
    Dipole Moment (Debye)
         X       0.9306      Y       1.3464      Z      -2.2810
       Tot       2.8074
    Quadrupole Moments (Debye-Ang)
        XX    -162.4344     XY       0.6421     YY    -175.6522
        XZ      -0.8720     YZ       9.1956     ZZ    -188.5084

 Total job time:  309.35s(wall), 9032.59s(cpu)
        *  Thank you very much for using Q-Chem.  Have a nice day.  *
