 Q-Chem 5.4, Q-Chem, Inc., Pleasanton, CA (2021)
 Q-Chem 5.4.0 for Intel X86 EM64T Linux

User input:
--------------------------------------------------------------
$molecule
0 1
C	0.046070	-6.741404	0.252767
C	0.272935	-6.155638	1.538656
C	-0.141739	-5.791452	-0.814966
C	0.321083	-4.803786	1.813042
H	0.425592	-6.821518	2.403318
C	-0.091779	-4.378638	-0.527566
C	0.138909	-3.838032	0.782769
C	-0.273808	-3.413062	-1.556632
C	0.188483	-2.426473	1.067868
C	-0.226610	-2.059348	-1.285436
C	-0.000000	-1.478216	-0.000000
H	-0.379657	-1.394783	-2.151019
C	-0.390420	-6.187987	-2.235891
C	-0.522125	-3.798164	-2.965540
N	-0.562731	-5.170003	-3.205600
C	0.570244	-4.424987	3.225760
C	0.438407	-2.036627	2.489646
N	0.610438	-3.049156	3.459662
O	-0.455563	-7.353131	-2.621768
O	-0.683373	-2.986854	-3.874608
O	0.729367	-5.248946	4.124059
O	0.508697	-0.878829	2.896516
C	-0.806996	-5.563799	-4.596910
H	-0.813717	-6.664085	-4.641640
H	-0.013655	-5.147101	-5.246567
H	-1.775159	-5.148785	-4.936739
C	0.851572	-2.587487	4.829729
H	0.964204	-3.483329	5.462387
H	0.003956	-1.964972	5.173914
H	1.764390	-1.962932	4.863360
C	0.000000	0.000000	0.000000
S	0.686805	0.396760	1.580530
C	2.105095	1.215640	0.904911
C	0.864201	0.499140	-0.985400
C	2.007514	1.159347	-0.493528
H	0.660136	0.381296	-2.059934
H	2.770388	1.599875	-1.152593
H	2.867745	1.656053	1.556025
H	-0.857128	-7.361589	0.303328
H	0.912587	-7.361192	-0.007933
H	-1.063684	-1.478831	0.187017
$end

$rem
JOBTYPE		SP
EXCHANGE	HF
CORRELATION	pRIMP2
BASIS		cc-pvtz
METHOD		rimp2
AUX_BASIS	rimp2-cc-pvtz
SOLVENT_METHOD	PCM
PURECART	11111
SYMMETRY	false
MEM_TOTAL	110000
SCF_CONVERGENCE = 6
THRESH=10
GUI = 2
$end

$solvent
dielectric 4.90
$end
--------------------------------------------------------------

             Standard Nuclear Orientation (Angstroms)
    I     Atom           X                Y                Z
 ----------------------------------------------------------------
    1      C       0.0460700000    -6.7414040000     0.2527670000
    2      C       0.2729350000    -6.1556380000     1.5386560000
    3      C      -0.1417390000    -5.7914520000    -0.8149660000
    4      C       0.3210830000    -4.8037860000     1.8130420000
    5      H       0.4255920000    -6.8215180000     2.4033180000
    6      C      -0.0917790000    -4.3786380000    -0.5275660000
    7      C       0.1389090000    -3.8380320000     0.7827690000
    8      C      -0.2738080000    -3.4130620000    -1.5566320000
    9      C       0.1884830000    -2.4264730000     1.0678680000
   10      C      -0.2266100000    -2.0593480000    -1.2854360000
   11      C       0.0000000000    -1.4782160000     0.0000000000
   12      H      -0.3796570000    -1.3947830000    -2.1510190000
   13      C      -0.3904200000    -6.1879870000    -2.2358910000
   14      C      -0.5221250000    -3.7981640000    -2.9655400000
   15      N      -0.5627310000    -5.1700030000    -3.2056000000
   16      C       0.5702440000    -4.4249870000     3.2257600000
   17      C       0.4384070000    -2.0366270000     2.4896460000
   18      N       0.6104380000    -3.0491560000     3.4596620000
   19      O      -0.4555630000    -7.3531310000    -2.6217680000
   20      O      -0.6833730000    -2.9868540000    -3.8746080000
   21      O       0.7293670000    -5.2489460000     4.1240590000
   22      O       0.5086970000    -0.8788290000     2.8965160000
   23      C      -0.8069960000    -5.5637990000    -4.5969100000
   24      H      -0.8137170000    -6.6640850000    -4.6416400000
   25      H      -0.0136550000    -5.1471010000    -5.2465670000
   26      H      -1.7751590000    -5.1487850000    -4.9367390000
   27      C       0.8515720000    -2.5874870000     4.8297290000
   28      H       0.9642040000    -3.4833290000     5.4623870000
   29      H       0.0039560000    -1.9649720000     5.1739140000
   30      H       1.7643900000    -1.9629320000     4.8633600000
   31      C       0.0000000000     0.0000000000     0.0000000000
   32      S       0.6868050000     0.3967600000     1.5805300000
   33      C       2.1050950000     1.2156400000     0.9049110000
   34      C       0.8642010000     0.4991400000    -0.9854000000
   35      C       2.0075140000     1.1593470000    -0.4935280000
   36      H       0.6601360000     0.3812960000    -2.0599340000
   37      H       2.7703880000     1.5998750000    -1.1525930000
   38      H       2.8677450000     1.6560530000     1.5560250000
   39      H      -0.8571280000    -7.3615890000     0.3033280000
   40      H       0.9125870000    -7.3611920000    -0.0079330000
   41      H      -1.0636840000    -1.4788310000     0.1870170000
 ----------------------------------------------------------------

   12   -1571.5211085668      4.73e-07  Convergence criterion met
 Total energy in the final basis set =    -1571.5211085668
        RIMP2         total energy =     -1576.2305896303 a.u.

                    Orbital Energies (a.u.)
 --------------------------------------------------------------

 Alpha MOs
 -- Occupied --
-91.9890 -20.5863 -20.5514 -20.5384 -20.5378 -15.6429 -15.6198 -11.4200
-11.3925 -11.3808 -11.3764 -11.3141 -11.3107 -11.3046 -11.3041 -11.3026
-11.2781 -11.2721 -11.2711 -11.2650 -11.2621 -11.2605 -11.2584 -11.2537
-11.2429 -11.2401 -11.2285  -8.9879  -6.6688  -6.6660  -6.6640  -1.4770
 -1.4113  -1.4098  -1.3889  -1.2822  -1.2539  -1.2308  -1.1867  -1.1440
 -1.1151  -1.0818  -1.0502  -1.0011  -0.9924  -0.9841  -0.9584  -0.9449
 -0.9072  -0.8877  -0.8819  -0.8636  -0.7986  -0.7891  -0.7800  -0.7604
 -0.7457  -0.7253  -0.7022  -0.6917  -0.6882  -0.6858  -0.6692  -0.6594
 -0.6558  -0.6462  -0.6386  -0.6328  -0.6319  -0.6306  -0.6251  -0.6082
 -0.5970  -0.5881  -0.5714  -0.5653  -0.5614  -0.5574  -0.5540  -0.5479
 -0.5467  -0.5450  -0.5340  -0.5137  -0.5084  -0.4894  -0.4679  -0.4577
 -0.4442  -0.4428  -0.4406  -0.4259  -0.4059  -0.3820  -0.3557  -0.3260
 -0.2771  -0.2586

          Ground-State Mulliken Net Atomic Charges

     Atom                 Charge (a.u.)
  ----------------------------------------
      1 C                    -0.086201
      2 C                    -0.019289
      3 C                    -0.122533
      4 C                    -0.122702
      5 H                     0.200736
      6 C                     0.019752
      7 C                     0.142361
      8 C                    -0.093578
      9 C                    -0.257356
     10 C                    -0.152283
     11 C                     0.198925
     12 H                     0.192557
     13 C                     0.341173
     14 C                     0.344563
     15 N                    -0.088515
     16 C                     0.360629
     17 C                     0.402403
     18 N                    -0.077781
     19 O                    -0.500662
     20 O                    -0.512198
     21 O                    -0.493762
     22 O                    -0.345188
     23 C                    -0.205629
     24 H                     0.139135
     25 H                     0.108885
     26 H                     0.108702
     27 C                    -0.198291
     28 H                     0.137921
     29 H                     0.115120
     30 H                     0.115765
     31 C                    -0.175213
     32 S                     0.129845
     33 C                    -0.256224
     34 C                    -0.147303
     35 C                    -0.266810
     36 H                     0.185046
     37 H                     0.175511
     38 H                     0.198024
     39 H                     0.138353
     40 H                     0.138513
     41 H                     0.227598
  ----------------------------------------
  Sum of atomic charges =     0.000000

                    Cartesian Multipole Moments
 -----------------------------------------------------------------
    Charge (ESU x 10^10)
                 0.0000
    Dipole Moment (Debye)
         X       1.2371      Y      -0.5652      Z       4.1654
       Tot       4.3818
    Quadrupole Moments (Debye-Ang)
        XX    -157.7892     XY       1.9222     YY    -186.0591
        XZ      -2.5612     YZ     -15.5611     ZZ    -179.7888

 Total job time:  344.28s(wall), 9689.49s(cpu)
        *  Thank you very much for using Q-Chem.  Have a nice day.  *
