 Q-Chem 5.4, Q-Chem, Inc., Pleasanton, CA (2021)
 Q-Chem 5.4.0 for Intel X86 EM64T Linux

User input:
--------------------------------------------------------------
$molecule
0 1
C	-0.240927	-6.741404	0.089263
C	-1.467886	-6.155638	0.535973
C	0.777972	-5.791452	-0.281103
C	-1.729742	-4.803786	0.631036
H	-2.292903	-6.821518	0.836458
C	0.503614	-4.378638	-0.181995
C	-0.746756	-3.838032	0.272725
C	1.485437	-3.413062	-0.539954
C	-1.018915	-2.426473	0.371053
C	1.226557	-2.059348	-0.446381
C	-0.000000	-1.478216	-0.000000
H	2.052413	-1.394783	-0.747410
C	2.134128	-6.187987	-0.772747
C	2.829820	-3.798164	-1.029154
N	3.059182	-5.170003	-1.110828
C	-3.077731	-4.424987	1.121728
C	-2.375694	-2.036627	0.864069
N	-3.301101	-3.049156	1.201928
O	2.502830	-7.353131	-0.903908
O	3.697078	-2.986854	-1.345809
O	-3.934752	-5.248946	1.434422
O	-2.764177	-0.878829	1.003943
C	4.386939	-5.563799	-1.592981
H	4.429822	-6.664085	-1.607367
H	5.164489	-5.147101	-0.924504
H	4.553486	-5.148785	-2.605446
C	-4.608481	-2.587487	1.677308
H	-5.211969	-3.483329	1.898089
H	-5.094624	-1.964972	0.902337
H	-4.483092	-1.962932	2.582098
C	0.000000	0.000000	0.000000
S	0.686805	0.396760	1.580530
C	2.105095	1.215640	0.904911
C	0.864201	0.499140	-0.985400
C	2.007514	1.159347	-0.493528
H	0.660136	0.381296	-2.059934
H	2.770388	1.599875	-1.152593
H	2.867745	1.656053	1.556025
H	-0.447559	-7.361589	-0.791434
H	0.166282	-7.361192	0.897345
H	-0.368883	-1.478831	-1.015049
$end

$rem
JOBTYPE		SP
EXCHANGE	HF
CORRELATION	pRIMP2
BASIS		cc-pvtz
METHOD		rimp2
AUX_BASIS	rimp2-cc-pvtz
SOLVENT_METHOD	PCM
PURECART	11111
SYMMETRY	false
MEM_TOTAL	110000
SCF_CONVERGENCE = 6
THRESH=10
GUI = 2
$end

$solvent
dielectric 4.90
$end
--------------------------------------------------------------

             Standard Nuclear Orientation (Angstroms)
    I     Atom           X                Y                Z
 ----------------------------------------------------------------
    1      C      -0.2409270000    -6.7414040000     0.0892630000
    2      C      -1.4678860000    -6.1556380000     0.5359730000
    3      C       0.7779720000    -5.7914520000    -0.2811030000
    4      C      -1.7297420000    -4.8037860000     0.6310360000
    5      H      -2.2929030000    -6.8215180000     0.8364580000
    6      C       0.5036140000    -4.3786380000    -0.1819950000
    7      C      -0.7467560000    -3.8380320000     0.2727250000
    8      C       1.4854370000    -3.4130620000    -0.5399540000
    9      C      -1.0189150000    -2.4264730000     0.3710530000
   10      C       1.2265570000    -2.0593480000    -0.4463810000
   11      C       0.0000000000    -1.4782160000     0.0000000000
   12      H       2.0524130000    -1.3947830000    -0.7474100000
   13      C       2.1341280000    -6.1879870000    -0.7727470000
   14      C       2.8298200000    -3.7981640000    -1.0291540000
   15      N       3.0591820000    -5.1700030000    -1.1108280000
   16      C      -3.0777310000    -4.4249870000     1.1217280000
   17      C      -2.3756940000    -2.0366270000     0.8640690000
   18      N      -3.3011010000    -3.0491560000     1.2019280000
   19      O       2.5028300000    -7.3531310000    -0.9039080000
   20      O       3.6970780000    -2.9868540000    -1.3458090000
   21      O      -3.9347520000    -5.2489460000     1.4344220000
   22      O      -2.7641770000    -0.8788290000     1.0039430000
   23      C       4.3869390000    -5.5637990000    -1.5929810000
   24      H       4.4298220000    -6.6640850000    -1.6073670000
   25      H       5.1644890000    -5.1471010000    -0.9245040000
   26      H       4.5534860000    -5.1487850000    -2.6054460000
   27      C      -4.6084810000    -2.5874870000     1.6773080000
   28      H      -5.2119690000    -3.4833290000     1.8980890000
   29      H      -5.0946240000    -1.9649720000     0.9023370000
   30      H      -4.4830920000    -1.9629320000     2.5820980000
   31      C       0.0000000000     0.0000000000     0.0000000000
   32      S       0.6868050000     0.3967600000     1.5805300000
   33      C       2.1050950000     1.2156400000     0.9049110000
   34      C       0.8642010000     0.4991400000    -0.9854000000
   35      C       2.0075140000     1.1593470000    -0.4935280000
   36      H       0.6601360000     0.3812960000    -2.0599340000
   37      H       2.7703880000     1.5998750000    -1.1525930000
   38      H       2.8677450000     1.6560530000     1.5560250000
   39      H      -0.4475590000    -7.3615890000    -0.7914340000
   40      H       0.1662820000    -7.3611920000     0.8973450000
   41      H      -0.3688830000    -1.4788310000    -1.0150490000
 ----------------------------------------------------------------

   11   -1571.6838483561      5.91e-07  Convergence criterion met
 Total energy in the final basis set =    -1571.6838483561
        RIMP2         total energy =     -1576.3546041279 a.u.

                    Orbital Energies (a.u.)
 --------------------------------------------------------------

 Alpha MOs
 -- Occupied --
-91.9903 -20.5512 -20.5430 -20.5393 -20.5392 -15.6255 -15.6198 -11.3915
-11.3835 -11.3812 -11.3775 -11.3074 -11.3035 -11.3034 -11.3021 -11.3003
-11.2934 -11.2839 -11.2757 -11.2723 -11.2656 -11.2646 -11.2618 -11.2607
-11.2588 -11.2569 -11.2503  -8.9907  -6.6714  -6.6706  -6.6704  -1.4180
 -1.4106  -1.3958  -1.3897  -1.2605  -1.2539  -1.2327  -1.1946  -1.1520
 -1.1113  -1.0834  -1.0440  -1.0012  -0.9955  -0.9861  -0.9540  -0.9480
 -0.8947  -0.8849  -0.8738  -0.8563  -0.7946  -0.7773  -0.7709  -0.7672
 -0.7426  -0.7167  -0.7034  -0.6905  -0.6829  -0.6705  -0.6654  -0.6558
 -0.6451  -0.6425  -0.6383  -0.6322  -0.6289  -0.6253  -0.6199  -0.6042
 -0.5843  -0.5816  -0.5708  -0.5602  -0.5560  -0.5505  -0.5496  -0.5466
 -0.5453  -0.5423  -0.5260  -0.5069  -0.4978  -0.4813  -0.4738  -0.4582
 -0.4550  -0.4497  -0.4410  -0.4322  -0.4120  -0.4060  -0.3602  -0.3480
 -0.3355  -0.2838

          Ground-State Mulliken Net Atomic Charges

     Atom                 Charge (a.u.)
  ----------------------------------------
      1 C                    -0.085976
      2 C                    -0.034933
      3 C                    -0.112512
      4 C                    -0.119165
      5 H                     0.197505
      6 C                     0.016579
      7 C                     0.113608
      8 C                    -0.084165
      9 C                    -0.213896
     10 C                    -0.178263
     11 C                     0.252779
     12 H                     0.197355
     13 C                     0.341456
     14 C                     0.340932
     15 N                    -0.088757
     16 C                     0.354773
     17 C                     0.353247
     18 N                    -0.090737
     19 O                    -0.497939
     20 O                    -0.512247
     21 O                    -0.502570
     22 O                    -0.469034
     23 C                    -0.205608
     24 H                     0.139396
     25 H                     0.108640
     26 H                     0.108180
     27 C                    -0.198625
     28 H                     0.132794
     29 H                     0.111275
     30 H                     0.111669
     31 C                    -0.120403
     32 S                     0.028701
     33 C                    -0.134015
     34 C                    -0.092282
     35 C                    -0.244241
     36 H                     0.200238
     37 H                     0.197692
     38 H                     0.216823
     39 H                     0.135389
     40 H                     0.135758
     41 H                     0.190577
  ----------------------------------------
  Sum of atomic charges =     0.000000

                    Cartesian Multipole Moments
 -----------------------------------------------------------------
    Charge (ESU x 10^10)
                 0.0000
    Dipole Moment (Debye)
         X       1.5449      Y       2.8712      Z      -1.3480
       Tot       3.5281
    Quadrupole Moments (Debye-Ang)
        XX    -183.1476     XY      15.2556     YY    -190.7724
        XZ      12.1540     YZ      -1.4645     ZZ    -159.5191

 Total job time:  337.40s(wall), 9901.59s(cpu)
        *  Thank you very much for using Q-Chem.  Have a nice day.  *
