 Q-Chem 5.4, Q-Chem, Inc., Pleasanton, CA (2021)
 Q-Chem 5.4.0 for Intel X86 EM64T Linux

User input:
--------------------------------------------------------------
$molecule
0 1
C	-0.223244	-6.741404	-0.127184
C	-1.354118	-6.155638	-0.779949
C	0.715408	-5.791452	0.415271
C	-1.595259	-4.803786	-0.919437
H	-2.114613	-6.821518	-1.218801
C	0.463133	-4.378638	0.268806
C	-0.688925	-3.838032	-0.396744
C	1.368449	-3.413062	0.790835
C	-0.939189	-2.426473	-0.542026
C	1.130363	-2.059348	0.652669
C	-0.000000	-1.478216	-0.000000
H	1.891815	-1.394783	1.091814
C	1.963749	-6.187987	1.138124
C	2.607351	-3.798164	1.506241
N	2.817348	-5.170003	1.629443
C	-2.837621	-4.424987	-1.636646
C	-2.188982	-2.036627	-1.264474
N	-3.042637	-3.049156	-1.756205
O	2.301222	-7.353131	1.336258
O	3.407386	-2.986854	1.967056
O	-3.628041	-5.248946	-2.092167
O	-2.545844	-0.878829	-1.472160
C	4.040164	-5.563799	2.336642
H	4.078749	-6.664085	2.360245
H	4.027880	-5.147101	3.361968
H	4.922811	-5.148785	1.813424
C	-4.247167	-2.587487	-2.452149
H	-4.804209	-3.483329	-2.772531
H	-3.965991	-1.964972	-3.322697
H	-4.859678	-1.962932	-1.774507
C	0.000000	0.000000	0.000000
S	0.335026	0.718942	1.580530
C	1.027130	2.203226	0.904911
C	0.421617	0.904557	-0.985400
C	0.979485	2.101144	-0.493528
H	0.322049	0.690978	-2.059934
H	1.351718	2.899571	-1.152593
H	1.399246	3.001430	1.556025
H	0.318588	-7.361589	-0.851574
H	-0.580522	-7.361192	0.704181
H	0.540459	-1.478831	-0.935042
$end

$rem
JOBTYPE		SP
EXCHANGE	HF
CORRELATION	pRIMP2
BASIS		cc-pvtz
METHOD		rimp2
AUX_BASIS	rimp2-cc-pvtz
SOLVENT_METHOD	PCM
PURECART	11111
SYMMETRY	false
MEM_TOTAL	110000
SCF_CONVERGENCE = 6
THRESH=10
GUI = 2
$end

$solvent
dielectric 4.90
$end
--------------------------------------------------------------

             Standard Nuclear Orientation (Angstroms)
    I     Atom           X                Y                Z
 ----------------------------------------------------------------
    1      C      -0.2232440000    -6.7414040000    -0.1271840000
    2      C      -1.3541180000    -6.1556380000    -0.7799490000
    3      C       0.7154080000    -5.7914520000     0.4152710000
    4      C      -1.5952590000    -4.8037860000    -0.9194370000
    5      H      -2.1146130000    -6.8215180000    -1.2188010000
    6      C       0.4631330000    -4.3786380000     0.2688060000
    7      C      -0.6889250000    -3.8380320000    -0.3967440000
    8      C       1.3684490000    -3.4130620000     0.7908350000
    9      C      -0.9391890000    -2.4264730000    -0.5420260000
   10      C       1.1303630000    -2.0593480000     0.6526690000
   11      C       0.0000000000    -1.4782160000     0.0000000000
   12      H       1.8918150000    -1.3947830000     1.0918140000
   13      C       1.9637490000    -6.1879870000     1.1381240000
   14      C       2.6073510000    -3.7981640000     1.5062410000
   15      N       2.8173480000    -5.1700030000     1.6294430000
   16      C      -2.8376210000    -4.4249870000    -1.6366460000
   17      C      -2.1889820000    -2.0366270000    -1.2644740000
   18      N      -3.0426370000    -3.0491560000    -1.7562050000
   19      O       2.3012220000    -7.3531310000     1.3362580000
   20      O       3.4073860000    -2.9868540000     1.9670560000
   21      O      -3.6280410000    -5.2489460000    -2.0921670000
   22      O      -2.5458440000    -0.8788290000    -1.4721600000
   23      C       4.0401640000    -5.5637990000     2.3366420000
   24      H       4.0787490000    -6.6640850000     2.3602450000
   25      H       4.0278800000    -5.1471010000     3.3619680000
   26      H       4.9228110000    -5.1487850000     1.8134240000
   27      C      -4.2471670000    -2.5874870000    -2.4521490000
   28      H      -4.8042090000    -3.4833290000    -2.7725310000
   29      H      -3.9659910000    -1.9649720000    -3.3226970000
   30      H      -4.8596780000    -1.9629320000    -1.7745070000
   31      C       0.0000000000     0.0000000000     0.0000000000
   32      S       0.3350260000     0.7189420000     1.5805300000
   33      C       1.0271300000     2.2032260000     0.9049110000
   34      C       0.4216170000     0.9045570000    -0.9854000000
   35      C       0.9794850000     2.1011440000    -0.4935280000
   36      H       0.3220490000     0.6909780000    -2.0599340000
   37      H       1.3517180000     2.8995710000    -1.1525930000
   38      H       1.3992460000     3.0014300000     1.5560250000
   39      H       0.3185880000    -7.3615890000    -0.8515740000
   40      H      -0.5805220000    -7.3611920000     0.7041810000
   41      H       0.5404590000    -1.4788310000    -0.9350420000
 ----------------------------------------------------------------

   11   -1571.7372392374      5.60e-07  Convergence criterion met
 Total energy in the final basis set =    -1571.7372392374
        RIMP2         total energy =     -1576.3949175523 a.u.

                    Orbital Energies (a.u.)
 --------------------------------------------------------------

 Alpha MOs
 -- Occupied --
-91.9901 -20.5529 -20.5443 -20.5413 -20.5405 -15.6269 -15.6211 -11.3936
-11.3849 -11.3832 -11.3791 -11.3081 -11.3069 -11.3043 -11.3040 -11.2965
-11.2956 -11.2891 -11.2833 -11.2683 -11.2675 -11.2648 -11.2629 -11.2593
-11.2565 -11.2522 -11.2519  -8.9899  -6.6708  -6.6702  -6.6697  -1.4196
 -1.4120  -1.3972  -1.3911  -1.2620  -1.2552  -1.2303  -1.1882  -1.1524
 -1.1137  -1.0859  -1.0464  -0.9962  -0.9877  -0.9868  -0.9550  -0.9501
 -0.8965  -0.8875  -0.8761  -0.8591  -0.7955  -0.7781  -0.7704  -0.7618
 -0.7416  -0.7170  -0.7035  -0.6917  -0.6820  -0.6715  -0.6664  -0.6571
 -0.6467  -0.6440  -0.6359  -0.6327  -0.6305  -0.6274  -0.6219  -0.6044
 -0.5854  -0.5756  -0.5673  -0.5613  -0.5563  -0.5511  -0.5506  -0.5489
 -0.5475  -0.5433  -0.5195  -0.5136  -0.5085  -0.4841  -0.4757  -0.4652
 -0.4580  -0.4511  -0.4426  -0.4343  -0.4134  -0.4072  -0.3577  -0.3494
 -0.3301  -0.2856

          Ground-State Mulliken Net Atomic Charges

     Atom                 Charge (a.u.)
  ----------------------------------------
      1 C                    -0.084483
      2 C                    -0.032738
      3 C                    -0.112370
      4 C                    -0.121291
      5 H                     0.198374
      6 C                     0.020515
      7 C                     0.114452
      8 C                    -0.088417
      9 C                    -0.173402
     10 C                    -0.126669
     11 C                     0.162615
     12 H                     0.201523
     13 C                     0.342800
     14 C                     0.345467
     15 N                    -0.089845
     16 C                     0.357275
     17 C                     0.346208
     18 N                    -0.091571
     19 O                    -0.494887
     20 O                    -0.506936
     21 O                    -0.501535
     22 O                    -0.472737
     23 C                    -0.204896
     24 H                     0.139434
     25 H                     0.109294
     26 H                     0.108877
     27 C                    -0.197381
     28 H                     0.133313
     29 H                     0.110796
     30 H                     0.112226
     31 C                     0.021897
     32 S                     0.007567
     33 C                    -0.207939
     34 C                    -0.190334
     35 C                    -0.204875
     36 H                     0.184233
     37 H                     0.192703
     38 H                     0.210976
     39 H                     0.137006
     40 H                     0.137208
     41 H                     0.207549
  ----------------------------------------
  Sum of atomic charges =     0.000000

                    Cartesian Multipole Moments
 -----------------------------------------------------------------
    Charge (ESU x 10^10)
                 0.0000
    Dipole Moment (Debye)
         X       0.5542      Y       2.2506      Z      -2.1508
       Tot       3.1620
    Quadrupole Moments (Debye-Ang)
        XX    -185.7540     XY      11.1813     YY    -180.6118
        XZ     -14.2304     YZ       6.0855     ZZ    -164.4516

 Total job time:  290.75s(wall), 8935.09s(cpu)
        *  Thank you very much for using Q-Chem.  Have a nice day.  *
