 Q-Chem 5.4, Q-Chem, Inc., Pleasanton, CA (2021)
 Q-Chem 5.4.0 for Intel X86 EM64T Linux

User input:
--------------------------------------------------------------
$molecule
0 1
C	0.240927	-6.741404	-0.089263
C	1.467886	-6.155638	-0.535973
C	-0.777972	-5.791452	0.281103
C	1.729742	-4.803786	-0.631036
H	2.292903	-6.821518	-0.836458
C	-0.503614	-4.378638	0.181995
C	0.746756	-3.838032	-0.272725
C	-1.485437	-3.413062	0.539954
C	1.018915	-2.426473	-0.371053
C	-1.226557	-2.059348	0.446381
C	0.000000	-1.478216	0.000000
H	-2.052413	-1.394783	0.747410
C	-2.134128	-6.187987	0.772747
C	-2.829820	-3.798164	1.029154
N	-3.059182	-5.170003	1.110828
C	3.077731	-4.424987	-1.121728
C	2.375694	-2.036627	-0.864069
N	3.301101	-3.049156	-1.201928
O	-2.502830	-7.353131	0.903908
O	-3.697078	-2.986854	1.345809
O	3.934752	-5.248946	-1.434422
O	2.764177	-0.878829	-1.003943
C	-4.386939	-5.563799	1.592981
H	-4.429822	-6.664085	1.607367
H	-5.164489	-5.147101	0.924504
H	-4.553486	-5.148785	2.605446
C	4.608481	-2.587487	-1.677308
H	5.211969	-3.483329	-1.898089
H	5.094624	-1.964972	-0.902337
H	4.483092	-1.962932	-2.582098
C	0.000000	0.000000	0.000000
S	0.396411	0.687007	1.580530
C	1.215245	2.105322	0.904911
C	0.498850	0.864369	-0.985400
C	1.158885	2.007781	-0.493528
H	0.381046	0.660280	-2.059934
H	1.599289	2.770727	-1.152593
H	1.655514	2.868056	1.556025
H	0.447559	-7.361589	0.791434
H	-0.166282	-7.361192	-0.897345
H	0.368883	-1.478831	1.015049
$end

$rem
JOBTYPE		SP
EXCHANGE	HF
CORRELATION	pRIMP2
BASIS		cc-pvtz
METHOD		rimp2
AUX_BASIS	rimp2-cc-pvtz
SOLVENT_METHOD	PCM
PURECART	11111
SYMMETRY	false
MEM_TOTAL	110000
SCF_CONVERGENCE = 6
THRESH=10
GUI = 2
$end

$solvent
dielectric 4.90
$end
--------------------------------------------------------------

             Standard Nuclear Orientation (Angstroms)
    I     Atom           X                Y                Z
 ----------------------------------------------------------------
    1      C       0.2409270000    -6.7414040000    -0.0892630000
    2      C       1.4678860000    -6.1556380000    -0.5359730000
    3      C      -0.7779720000    -5.7914520000     0.2811030000
    4      C       1.7297420000    -4.8037860000    -0.6310360000
    5      H       2.2929030000    -6.8215180000    -0.8364580000
    6      C      -0.5036140000    -4.3786380000     0.1819950000
    7      C       0.7467560000    -3.8380320000    -0.2727250000
    8      C      -1.4854370000    -3.4130620000     0.5399540000
    9      C       1.0189150000    -2.4264730000    -0.3710530000
   10      C      -1.2265570000    -2.0593480000     0.4463810000
   11      C       0.0000000000    -1.4782160000     0.0000000000
   12      H      -2.0524130000    -1.3947830000     0.7474100000
   13      C      -2.1341280000    -6.1879870000     0.7727470000
   14      C      -2.8298200000    -3.7981640000     1.0291540000
   15      N      -3.0591820000    -5.1700030000     1.1108280000
   16      C       3.0777310000    -4.4249870000    -1.1217280000
   17      C       2.3756940000    -2.0366270000    -0.8640690000
   18      N       3.3011010000    -3.0491560000    -1.2019280000
   19      O      -2.5028300000    -7.3531310000     0.9039080000
   20      O      -3.6970780000    -2.9868540000     1.3458090000
   21      O       3.9347520000    -5.2489460000    -1.4344220000
   22      O       2.7641770000    -0.8788290000    -1.0039430000
   23      C      -4.3869390000    -5.5637990000     1.5929810000
   24      H      -4.4298220000    -6.6640850000     1.6073670000
   25      H      -5.1644890000    -5.1471010000     0.9245040000
   26      H      -4.5534860000    -5.1487850000     2.6054460000
   27      C       4.6084810000    -2.5874870000    -1.6773080000
   28      H       5.2119690000    -3.4833290000    -1.8980890000
   29      H       5.0946240000    -1.9649720000    -0.9023370000
   30      H       4.4830920000    -1.9629320000    -2.5820980000
   31      C       0.0000000000     0.0000000000     0.0000000000
   32      S       0.3964110000     0.6870070000     1.5805300000
   33      C       1.2152450000     2.1053220000     0.9049110000
   34      C       0.4988500000     0.8643690000    -0.9854000000
   35      C       1.1588850000     2.0077810000    -0.4935280000
   36      H       0.3810460000     0.6602800000    -2.0599340000
   37      H       1.5992890000     2.7707270000    -1.1525930000
   38      H       1.6555140000     2.8680560000     1.5560250000
   39      H       0.4475590000    -7.3615890000     0.7914340000
   40      H      -0.1662820000    -7.3611920000    -0.8973450000
   41      H       0.3688830000    -1.4788310000     1.0150490000
 ----------------------------------------------------------------

   11   -1571.7252218354      5.71e-07  Convergence criterion met
 Total energy in the final basis set =    -1571.7252218354
        RIMP2         total energy =     -1576.3843971949 a.u.

                    Orbital Energies (a.u.)
 --------------------------------------------------------------

 Alpha MOs
 -- Occupied --
-91.9901 -20.5500 -20.5440 -20.5402 -20.5390 -15.6262 -15.6200 -11.3921
-11.3846 -11.3821 -11.3774 -11.3071 -11.3051 -11.3037 -11.3034 -11.2956
-11.2886 -11.2845 -11.2821 -11.2673 -11.2668 -11.2628 -11.2616 -11.2586
-11.2582 -11.2517 -11.2498  -8.9903  -6.6712  -6.6706  -6.6700  -1.4186
 -1.4108  -1.3965  -1.3900  -1.2613  -1.2541  -1.2287  -1.1870  -1.1517
 -1.1123  -1.0851  -1.0451  -0.9956  -0.9870  -0.9854  -0.9542  -0.9501
 -0.8946  -0.8847  -0.8758  -0.8589  -0.7911  -0.7744  -0.7729  -0.7682
 -0.7390  -0.7156  -0.7032  -0.6902  -0.6754  -0.6697  -0.6664  -0.6563
 -0.6461  -0.6417  -0.6368  -0.6306  -0.6299  -0.6258  -0.6222  -0.6038
 -0.5836  -0.5737  -0.5674  -0.5607  -0.5556  -0.5505  -0.5490  -0.5469
 -0.5465  -0.5431  -0.5222  -0.5126  -0.5054  -0.4792  -0.4729  -0.4682
 -0.4550  -0.4498  -0.4415  -0.4334  -0.4128  -0.4064  -0.3537  -0.3505
 -0.3288  -0.2856

          Ground-State Mulliken Net Atomic Charges

     Atom                 Charge (a.u.)
  ----------------------------------------
      1 C                    -0.084594
      2 C                    -0.030728
      3 C                    -0.116433
      4 C                    -0.120819
      5 H                     0.198129
      6 C                     0.008018
      7 C                     0.117791
      8 C                    -0.062671
      9 C                    -0.143648
     10 C                    -0.172249
     11 C                     0.216718
     12 H                     0.193066
     13 C                     0.342974
     14 C                     0.348074
     15 N                    -0.089399
     16 C                     0.356796
     17 C                     0.362499
     18 N                    -0.089142
     19 O                    -0.496333
     20 O                    -0.508628
     21 O                    -0.502250
     22 O                    -0.470985
     23 C                    -0.205072
     24 H                     0.139157
     25 H                     0.108877
     26 H                     0.108820
     27 C                    -0.197639
     28 H                     0.133361
     29 H                     0.111432
     30 H                     0.110486
     31 C                    -0.071868
     32 S                     0.004241
     33 C                    -0.201876
     34 C                    -0.163576
     35 C                    -0.183637
     36 H                     0.184467
     37 H                     0.188851
     38 H                     0.213744
     39 H                     0.136745
     40 H                     0.136952
     41 H                     0.190349
  ----------------------------------------
  Sum of atomic charges =     0.000000

                    Cartesian Multipole Moments
 -----------------------------------------------------------------
    Charge (ESU x 10^10)
                 0.0000
    Dipole Moment (Debye)
         X       2.6000      Y       2.8246      Z      -0.8372
       Tot       3.9293
    Quadrupole Moments (Debye-Ang)
        XX    -189.5089     XY      -3.8526     YY    -182.5750
        XZ      11.2366     YZ       2.6450     ZZ    -160.0667

 Total job time:  302.42s(wall), 9148.27s(cpu)
        *  Thank you very much for using Q-Chem.  Have a nice day.  *
