 Q-Chem 5.4, Q-Chem, Inc., Pleasanton, CA (2021)
 Q-Chem 5.4.0 for Intel X86 EM64T Linux

User input:
--------------------------------------------------------------
$molecule
0 1
C	1.169177	-6.639243	-0.256927
C	1.067337	-6.062399	-1.562675
C	1.003773	-5.703803	0.827197
C	0.832816	-4.731044	-1.841253
H	1.182777	-6.718195	-2.440709
C	0.759135	-4.312330	0.535488
C	0.665608	-3.779876	-0.794999
C	0.592024	-3.361324	1.580529
C	0.421169	-2.389641	-1.084374
C	0.357557	-2.028070	1.305258
C	0.256690	-1.455759	-0.000000
H	0.242565	-1.373530	2.184267
C	1.070820	-6.094632	2.269719
C	0.658788	-3.740595	3.011152
N	0.895334	-5.091887	3.254617
C	0.766979	-4.358010	-3.275775
C	0.354224	-2.005586	-2.527951
N	0.529086	-3.002902	-3.513104
O	1.270336	-7.242571	2.661046
O	0.518831	-2.941447	3.934410
O	0.909352	-5.169576	-4.188059
O	0.154583	-0.865129	-2.940845
C	0.962688	-5.479882	4.667206
H	1.152619	-6.563651	4.712423
H	0.009812	-5.224773	5.169231
H	1.771476	-4.915854	5.169992
C	0.449351	-2.548170	-4.904229
H	0.603867	-3.430587	-5.546833
H	1.222168	-1.779783	-5.095998
H	-0.538644	-2.088191	-5.095858
C	0.000000	0.000000	0.000000
S	0.271091	0.745405	1.580530
C	0.831198	2.284363	0.904911
C	0.341175	0.937861	-0.985400
C	0.792631	2.178516	-0.493528
H	0.260601	0.716417	-2.059934
H	1.093860	3.006347	-1.152593
H	1.132330	3.111961	1.556025
H	2.161481	-7.094026	-0.149881
H	0.391832	-7.405660	-0.150656
H	1.320388	-1.268824	0.000531
$end

$rem
JOBTYPE		SP
EXCHANGE	HF
CORRELATION	pRIMP2
BASIS		cc-pvtz
METHOD		rimp2
AUX_BASIS	rimp2-cc-pvtz
SOLVENT_METHOD	PCM
PURECART	11111
SYMMETRY	false
MEM_TOTAL	110000
SCF_CONVERGENCE = 6
THRESH=10
GUI = 2
$end

$solvent
dielectric 4.90
$end
--------------------------------------------------------------

             Standard Nuclear Orientation (Angstroms)
    I     Atom           X                Y                Z
 ----------------------------------------------------------------
    1      C       1.1691770000    -6.6392430000    -0.2569270000
    2      C       1.0673370000    -6.0623990000    -1.5626750000
    3      C       1.0037730000    -5.7038030000     0.8271970000
    4      C       0.8328160000    -4.7310440000    -1.8412530000
    5      H       1.1827770000    -6.7181950000    -2.4407090000
    6      C       0.7591350000    -4.3123300000     0.5354880000
    7      C       0.6656080000    -3.7798760000    -0.7949990000
    8      C       0.5920240000    -3.3613240000     1.5805290000
    9      C       0.4211690000    -2.3896410000    -1.0843740000
   10      C       0.3575570000    -2.0280700000     1.3052580000
   11      C       0.2566900000    -1.4557590000     0.0000000000
   12      H       0.2425650000    -1.3735300000     2.1842670000
   13      C       1.0708200000    -6.0946320000     2.2697190000
   14      C       0.6587880000    -3.7405950000     3.0111520000
   15      N       0.8953340000    -5.0918870000     3.2546170000
   16      C       0.7669790000    -4.3580100000    -3.2757750000
   17      C       0.3542240000    -2.0055860000    -2.5279510000
   18      N       0.5290860000    -3.0029020000    -3.5131040000
   19      O       1.2703360000    -7.2425710000     2.6610460000
   20      O       0.5188310000    -2.9414470000     3.9344100000
   21      O       0.9093520000    -5.1695760000    -4.1880590000
   22      O       0.1545830000    -0.8651290000    -2.9408450000
   23      C       0.9626880000    -5.4798820000     4.6672060000
   24      H       1.1526190000    -6.5636510000     4.7124230000
   25      H       0.0098120000    -5.2247730000     5.1692310000
   26      H       1.7714760000    -4.9158540000     5.1699920000
   27      C       0.4493510000    -2.5481700000    -4.9042290000
   28      H       0.6038670000    -3.4305870000    -5.5468330000
   29      H       1.2221680000    -1.7797830000    -5.0959980000
   30      H      -0.5386440000    -2.0881910000    -5.0958580000
   31      C       0.0000000000     0.0000000000     0.0000000000
   32      S       0.2710910000     0.7454050000     1.5805300000
   33      C       0.8311980000     2.2843630000     0.9049110000
   34      C       0.3411750000     0.9378610000    -0.9854000000
   35      C       0.7926310000     2.1785160000    -0.4935280000
   36      H       0.2606010000     0.7164170000    -2.0599340000
   37      H       1.0938600000     3.0063470000    -1.1525930000
   38      H       1.1323300000     3.1119610000     1.5560250000
   39      H       2.1614810000    -7.0940260000    -0.1498810000
   40      H       0.3918320000    -7.4056600000    -0.1506560000
   41      H       1.3203880000    -1.2688240000     0.0005310000
 ----------------------------------------------------------------

   11   -1571.7141013980      5.74e-07  Convergence criterion met
 Total energy in the final basis set =    -1571.7141013980
        RIMP2         total energy =     -1576.3774296981 a.u.

                    Orbital Energies (a.u.)
 --------------------------------------------------------------

 Alpha MOs
 -- Occupied --
-91.9879 -20.5540 -20.5459 -20.5420 -20.5409 -15.6295 -15.6215 -11.3984
-11.3867 -11.3838 -11.3793 -11.3096 -11.3072 -11.3056 -11.3049 -11.2976
-11.2927 -11.2909 -11.2792 -11.2698 -11.2690 -11.2659 -11.2645 -11.2594
-11.2534 -11.2465 -11.2371  -8.9884  -6.6693  -6.6687  -6.6681  -1.4247
 -1.4124  -1.4005  -1.3916  -1.2651  -1.2558  -1.2322  -1.1893  -1.1500
 -1.1148  -1.0865  -1.0485  -0.9963  -0.9887  -0.9839  -0.9558  -0.9485
 -0.8979  -0.8903  -0.8781  -0.8611  -0.7945  -0.7816  -0.7729  -0.7592
 -0.7394  -0.7224  -0.7016  -0.6899  -0.6835  -0.6741  -0.6685  -0.6581
 -0.6494  -0.6478  -0.6379  -0.6320  -0.6314  -0.6299  -0.6242  -0.6050
 -0.5933  -0.5713  -0.5646  -0.5622  -0.5580  -0.5525  -0.5515  -0.5488
 -0.5480  -0.5425  -0.5174  -0.5143  -0.5079  -0.4848  -0.4738  -0.4587
 -0.4574  -0.4490  -0.4426  -0.4361  -0.4162  -0.4081  -0.3586  -0.3482
 -0.3325  -0.2767

          Ground-State Mulliken Net Atomic Charges

     Atom                 Charge (a.u.)
  ----------------------------------------
      1 C                    -0.083831
      2 C                    -0.032189
      3 C                    -0.105826
      4 C                    -0.120075
      5 H                     0.198966
      6 C                     0.024431
      7 C                     0.120170
      8 C                    -0.045147
      9 C                    -0.212579
     10 C                    -0.164022
     11 C                     0.175280
     12 H                     0.187167
     13 C                     0.341670
     14 C                     0.343798
     15 N                    -0.089914
     16 C                     0.357949
     17 C                     0.385173
     18 N                    -0.088136
     19 O                    -0.494149
     20 O                    -0.506939
     21 O                    -0.500201
     22 O                    -0.481448
     23 C                    -0.204952
     24 H                     0.139448
     25 H                     0.109525
     26 H                     0.109308
     27 C                    -0.198839
     28 H                     0.134513
     29 H                     0.111531
     30 H                     0.112441
     31 C                     0.023755
     32 S                    -0.006895
     33 C                    -0.229987
     34 C                    -0.225077
     35 C                    -0.216518
     36 H                     0.230469
     37 H                     0.191481
     38 H                     0.214473
     39 H                     0.138059
     40 H                     0.138323
     41 H                     0.218793
  ----------------------------------------
  Sum of atomic charges =     0.000000

                    Cartesian Multipole Moments
 -----------------------------------------------------------------
    Charge (ESU x 10^10)
                 0.0000
    Dipole Moment (Debye)
         X       1.5540      Y       1.7859      Z      -2.3566
       Tot       3.3403
    Quadrupole Moments (Debye-Ang)
        XX    -161.5010     XY       6.3358     YY    -177.6208
        XZ      -1.6010     YZ       9.4929     ZZ    -188.5406

 Total job time:  322.65s(wall), 9526.81s(cpu)
        *  Thank you very much for using Q-Chem.  Have a nice day.  *
