 Q-Chem 5.4, Q-Chem, Inc., Pleasanton, CA (2021)
 Q-Chem 5.4.0 for Intel X86 EM64T Linux

User input:
--------------------------------------------------------------
$molecule
0 1
C	0.043160	-6.741404	-0.253280
C	0.269777	-6.155638	-1.539213
C	-0.145543	-5.791452	0.814295
C	0.318377	-4.803786	-1.813519
H	0.422058	-6.821518	-2.403941
C	-0.094194	-4.378638	0.527140
C	0.137191	-3.838032	-0.783072
C	-0.275104	-3.413062	1.556403
C	0.188116	-2.426473	-1.067932
C	-0.226701	-2.059348	1.285420
C	-0.000000	-1.478216	-0.000000
H	-0.378931	-1.394783	2.151147
C	-0.397845	-6.187987	2.234582
C	-0.523637	-3.798164	2.965273
N	-0.567586	-5.170003	3.204744
C	0.567421	-4.424987	-3.226257
C	0.439541	-2.036627	-2.489446
N	0.609650	-3.049156	-3.459801
O	-0.468608	-7.353131	2.619468
O	-0.683034	-2.986854	3.874668
O	0.725131	-5.248946	-4.124806
O	0.512648	-0.878829	-2.895819
C	-0.813908	-5.563799	4.595691
H	-0.822891	-6.664085	4.640022
H	-1.781600	-5.147101	4.934830
H	-0.020360	-5.148785	5.246157
C	0.851649	-2.587487	-4.829716
H	0.962191	-3.483329	-5.462742
H	1.765865	-1.964972	-4.863242
H	0.005383	-1.962932	-5.173521
C	0.000000	0.000000	0.000000
S	0.607475	0.509994	1.580530
C	1.862020	1.562717	0.904911
C	0.764397	0.641624	-0.985400
C	1.775697	1.490335	-0.493528
H	0.583895	0.490135	-2.059934
H	2.450484	2.056643	-1.152593
H	2.536607	2.128872	1.556025
H	0.909181	-7.361589	0.008120
H	-0.860264	-7.361192	-0.304668
H	1.063500	-1.478831	0.188062
$end

$rem
JOBTYPE		SP
EXCHANGE	HF
CORRELATION	pRIMP2
BASIS		cc-pvtz
METHOD		rimp2
AUX_BASIS	rimp2-cc-pvtz
SOLVENT_METHOD	PCM
PURECART	11111
SYMMETRY	false
MEM_TOTAL	110000
SCF_CONVERGENCE = 6
THRESH=10
GUI = 2
$end

$solvent
dielectric 4.90
$end
--------------------------------------------------------------

             Standard Nuclear Orientation (Angstroms)
    I     Atom           X                Y                Z
 ----------------------------------------------------------------
    1      C       0.0431600000    -6.7414040000    -0.2532800000
    2      C       0.2697770000    -6.1556380000    -1.5392130000
    3      C      -0.1455430000    -5.7914520000     0.8142950000
    4      C       0.3183770000    -4.8037860000    -1.8135190000
    5      H       0.4220580000    -6.8215180000    -2.4039410000
    6      C      -0.0941940000    -4.3786380000     0.5271400000
    7      C       0.1371910000    -3.8380320000    -0.7830720000
    8      C      -0.2751040000    -3.4130620000     1.5564030000
    9      C       0.1881160000    -2.4264730000    -1.0679320000
   10      C      -0.2267010000    -2.0593480000     1.2854200000
   11      C       0.0000000000    -1.4782160000     0.0000000000
   12      H      -0.3789310000    -1.3947830000     2.1511470000
   13      C      -0.3978450000    -6.1879870000     2.2345820000
   14      C      -0.5236370000    -3.7981640000     2.9652730000
   15      N      -0.5675860000    -5.1700030000     3.2047440000
   16      C       0.5674210000    -4.4249870000    -3.2262570000
   17      C       0.4395410000    -2.0366270000    -2.4894460000
   18      N       0.6096500000    -3.0491560000    -3.4598010000
   19      O      -0.4686080000    -7.3531310000     2.6194680000
   20      O      -0.6830340000    -2.9868540000     3.8746680000
   21      O       0.7251310000    -5.2489460000    -4.1248060000
   22      O       0.5126480000    -0.8788290000    -2.8958190000
   23      C      -0.8139080000    -5.5637990000     4.5956910000
   24      H      -0.8228910000    -6.6640850000     4.6400220000
   25      H      -1.7816000000    -5.1471010000     4.9348300000
   26      H      -0.0203600000    -5.1487850000     5.2461570000
   27      C       0.8516490000    -2.5874870000    -4.8297160000
   28      H       0.9621910000    -3.4833290000    -5.4627420000
   29      H       1.7658650000    -1.9649720000    -4.8632420000
   30      H       0.0053830000    -1.9629320000    -5.1735210000
   31      C       0.0000000000     0.0000000000     0.0000000000
   32      S       0.6074750000     0.5099940000     1.5805300000
   33      C       1.8620200000     1.5627170000     0.9049110000
   34      C       0.7643970000     0.6416240000    -0.9854000000
   35      C       1.7756970000     1.4903350000    -0.4935280000
   36      H       0.5838950000     0.4901350000    -2.0599340000
   37      H       2.4504840000     2.0566430000    -1.1525930000
   38      H       2.5366070000     2.1288720000     1.5560250000
   39      H       0.9091810000    -7.3615890000     0.0081200000
   40      H      -0.8602640000    -7.3611920000    -0.3046680000
   41      H       1.0635000000    -1.4788310000     0.1880620000
 ----------------------------------------------------------------

   11   -1571.6654974505      5.39e-07  Convergence criterion met
 Total energy in the final basis set =    -1571.6654974505
        RIMP2         total energy =     -1576.3377145880 a.u.

                    Orbital Energies (a.u.)
 --------------------------------------------------------------

 Alpha MOs
 -- Occupied --
-91.9832 -20.5541 -20.5462 -20.5405 -20.5394 -15.6307 -15.6202 -11.4011
-11.3868 -11.3824 -11.3777 -11.3078 -11.3045 -11.3042 -11.3036 -11.2968
-11.2926 -11.2859 -11.2746 -11.2684 -11.2676 -11.2652 -11.2630 -11.2587
-11.2524 -11.2464 -11.2397  -8.9847  -6.6655  -6.6648  -6.6643  -1.4289
 -1.4111  -1.4020  -1.3902  -1.2667  -1.2546  -1.2326  -1.1916  -1.1494
 -1.1133  -1.0845  -1.0475  -0.9976  -0.9888  -0.9871  -0.9554  -0.9471
 -0.8980  -0.8881  -0.8777  -0.8603  -0.7929  -0.7819  -0.7740  -0.7617
 -0.7389  -0.7317  -0.7017  -0.6887  -0.6826  -0.6742  -0.6679  -0.6577
 -0.6494  -0.6480  -0.6370  -0.6319  -0.6308  -0.6306  -0.6239  -0.6040
 -0.5928  -0.5694  -0.5673  -0.5639  -0.5574  -0.5531  -0.5522  -0.5479
 -0.5470  -0.5419  -0.5171  -0.5120  -0.5036  -0.4765  -0.4710  -0.4598
 -0.4555  -0.4444  -0.4389  -0.4348  -0.4176  -0.4071  -0.3594  -0.3443
 -0.3329  -0.2744

          Ground-State Mulliken Net Atomic Charges

     Atom                 Charge (a.u.)
  ----------------------------------------
      1 C                    -0.083976
      2 C                    -0.032304
      3 C                    -0.111967
      4 C                    -0.116485
      5 H                     0.198453
      6 C                     0.017220
      7 C                     0.123473
      8 C                    -0.059837
      9 C                    -0.211299
     10 C                    -0.138048
     11 C                     0.171461
     12 H                     0.182831
     13 C                     0.341660
     14 C                     0.344554
     15 N                    -0.089692
     16 C                     0.357643
     17 C                     0.388490
     18 N                    -0.086509
     19 O                    -0.496120
     20 O                    -0.508531
     21 O                    -0.499610
     22 O                    -0.465866
     23 C                    -0.205303
     24 H                     0.139252
     25 H                     0.109141
     26 H                     0.108957
     27 C                    -0.199397
     28 H                     0.135037
     29 H                     0.111642
     30 H                     0.112762
     31 C                    -0.057237
     32 S                    -0.010539
     33 C                    -0.182656
     34 C                    -0.171433
     35 C                    -0.235145
     36 H                     0.239321
     37 H                     0.191434
     38 H                     0.214617
     39 H                     0.137237
     40 H                     0.137693
     41 H                     0.199075
  ----------------------------------------
  Sum of atomic charges =     0.000000

                    Cartesian Multipole Moments
 -----------------------------------------------------------------
    Charge (ESU x 10^10)
                 0.0000
    Dipole Moment (Debye)
         X       3.0486      Y       1.7787      Z      -2.6493
       Tot       4.4132
    Quadrupole Moments (Debye-Ang)
        XX    -156.7409     XY       2.8119     YY    -184.6736
        XZ       5.7945     YZ      10.1177     ZZ    -187.0356

 Total job time:  362.25s(wall), 11153.53s(cpu)
        *  Thank you very much for using Q-Chem.  Have a nice day.  *
