 Q-Chem 5.4, Q-Chem, Inc., Pleasanton, CA (2021)
 Q-Chem 5.4.0 for Intel X86 EM64T Linux

User input:
--------------------------------------------------------------
$molecule
0 1
C	-0.221766	-6.741404	0.129743
C	-1.352515	-6.155638	0.782726
C	0.717339	-5.791452	-0.411926
C	-1.593885	-4.803786	0.921816
H	-2.112819	-6.821518	1.221908
C	0.464360	-4.378638	-0.266682
C	-0.688053	-3.838032	0.398255
C	1.369108	-3.413062	-0.789694
C	-0.939002	-2.426473	0.542349
C	1.130409	-2.059348	-0.652589
C	-0.000000	-1.478216	-0.000000
H	1.891446	-1.394783	-1.092453
C	1.967519	-6.187987	-1.131595
C	2.608118	-3.798164	-1.504912
N	2.819813	-5.170003	-1.625174
C	-2.836188	-4.424987	1.639129
C	-2.189558	-2.036627	1.263477
N	-3.042237	-3.049156	1.756898
O	2.307845	-7.353131	-1.324787
O	3.407213	-2.986854	-1.967354
O	-3.625890	-5.248946	2.095892
O	-2.547850	-0.878829	1.468685
C	4.043674	-5.563799	-2.330564
H	4.083407	-6.664085	-2.352178
H	4.925490	-5.147101	-1.807263
H	4.031877	-5.148785	-3.356568
C	-4.247206	-2.587487	2.452080
H	-4.803187	-3.483329	2.774302
H	-4.860536	-1.964972	1.773301
H	-3.966607	-1.962932	3.321351
C	0.000000	0.000000	0.000000
S	0.686805	0.396760	1.580530
C	2.105095	1.215640	0.904911
C	0.864201	0.499140	-0.985400
C	2.007514	1.159347	-0.493528
H	0.660136	0.381296	-2.059934
H	2.770388	1.599875	-1.152593
H	2.867745	1.656053	1.556025
H	-0.578191	-7.361589	-0.701693
H	0.319578	-7.361192	0.854838
H	-0.539540	-1.478831	-0.935572
$end

$rem
JOBTYPE		SP
EXCHANGE	HF
CORRELATION	pRIMP2
BASIS		cc-pvtz
METHOD		rimp2
AUX_BASIS	rimp2-cc-pvtz
SOLVENT_METHOD	PCM
PURECART	11111
SYMMETRY	false
MEM_TOTAL	110000
SCF_CONVERGENCE = 6
THRESH=10
GUI = 2
$end

$solvent
dielectric 4.90
$end
--------------------------------------------------------------

             Standard Nuclear Orientation (Angstroms)
    I     Atom           X                Y                Z
 ----------------------------------------------------------------
    1      C      -0.2217660000    -6.7414040000     0.1297430000
    2      C      -1.3525150000    -6.1556380000     0.7827260000
    3      C       0.7173390000    -5.7914520000    -0.4119260000
    4      C      -1.5938850000    -4.8037860000     0.9218160000
    5      H      -2.1128190000    -6.8215180000     1.2219080000
    6      C       0.4643600000    -4.3786380000    -0.2666820000
    7      C      -0.6880530000    -3.8380320000     0.3982550000
    8      C       1.3691080000    -3.4130620000    -0.7896940000
    9      C      -0.9390020000    -2.4264730000     0.5423490000
   10      C       1.1304090000    -2.0593480000    -0.6525890000
   11      C       0.0000000000    -1.4782160000     0.0000000000
   12      H       1.8914460000    -1.3947830000    -1.0924530000
   13      C       1.9675190000    -6.1879870000    -1.1315950000
   14      C       2.6081180000    -3.7981640000    -1.5049120000
   15      N       2.8198130000    -5.1700030000    -1.6251740000
   16      C      -2.8361880000    -4.4249870000     1.6391290000
   17      C      -2.1895580000    -2.0366270000     1.2634770000
   18      N      -3.0422370000    -3.0491560000     1.7568980000
   19      O       2.3078450000    -7.3531310000    -1.3247870000
   20      O       3.4072130000    -2.9868540000    -1.9673540000
   21      O      -3.6258900000    -5.2489460000     2.0958920000
   22      O      -2.5478500000    -0.8788290000     1.4686850000
   23      C       4.0436740000    -5.5637990000    -2.3305640000
   24      H       4.0834070000    -6.6640850000    -2.3521780000
   25      H       4.9254900000    -5.1471010000    -1.8072630000
   26      H       4.0318770000    -5.1487850000    -3.3565680000
   27      C      -4.2472060000    -2.5874870000     2.4520800000
   28      H      -4.8031870000    -3.4833290000     2.7743020000
   29      H      -4.8605360000    -1.9649720000     1.7733010000
   30      H      -3.9666070000    -1.9629320000     3.3213510000
   31      C       0.0000000000     0.0000000000     0.0000000000
   32      S       0.6868050000     0.3967600000     1.5805300000
   33      C       2.1050950000     1.2156400000     0.9049110000
   34      C       0.8642010000     0.4991400000    -0.9854000000
   35      C       2.0075140000     1.1593470000    -0.4935280000
   36      H       0.6601360000     0.3812960000    -2.0599340000
   37      H       2.7703880000     1.5998750000    -1.1525930000
   38      H       2.8677450000     1.6560530000     1.5560250000
   39      H      -0.5781910000    -7.3615890000    -0.7016930000
   40      H       0.3195780000    -7.3611920000     0.8548380000
   41      H      -0.5395400000    -1.4788310000    -0.9355720000
 ----------------------------------------------------------------

   11   -1571.6808152205      6.11e-07  Convergence criterion met
 Total energy in the final basis set =    -1571.6808152205
        RIMP2         total energy =     -1576.3522930130 a.u.

                    Orbital Energies (a.u.)
 --------------------------------------------------------------

 Alpha MOs
 -- Occupied --
-91.9892 -20.5519 -20.5432 -20.5390 -20.5388 -15.6258 -15.6196 -11.3922
-11.3838 -11.3808 -11.3773 -11.3073 -11.3044 -11.3038 -11.3021 -11.3010
-11.2940 -11.2843 -11.2763 -11.2709 -11.2659 -11.2639 -11.2619 -11.2602
-11.2587 -11.2568 -11.2502  -8.9896  -6.6703  -6.6695  -6.6692  -1.4186
 -1.4103  -1.3962  -1.3895  -1.2608  -1.2537  -1.2326  -1.1943  -1.1522
 -1.1114  -1.0836  -1.0445  -1.0009  -0.9953  -0.9861  -0.9541  -0.9481
 -0.8949  -0.8853  -0.8741  -0.8565  -0.7940  -0.7770  -0.7728  -0.7670
 -0.7412  -0.7166  -0.7034  -0.6911  -0.6829  -0.6710  -0.6656  -0.6558
 -0.6452  -0.6425  -0.6389  -0.6321  -0.6289  -0.6255  -0.6200  -0.6045
 -0.5860  -0.5804  -0.5713  -0.5604  -0.5564  -0.5505  -0.5495  -0.5463
 -0.5450  -0.5425  -0.5274  -0.5070  -0.4993  -0.4799  -0.4737  -0.4583
 -0.4533  -0.4498  -0.4409  -0.4322  -0.4123  -0.4059  -0.3570  -0.3501
 -0.3360  -0.2816

          Ground-State Mulliken Net Atomic Charges

     Atom                 Charge (a.u.)
  ----------------------------------------
      1 C                    -0.085140
      2 C                    -0.034312
      3 C                    -0.113856
      4 C                    -0.118930
      5 H                     0.197704
      6 C                     0.020611
      7 C                     0.108871
      8 C                    -0.078617
      9 C                    -0.209660
     10 C                    -0.193984
     11 C                     0.259489
     12 H                     0.194053
     13 C                     0.340058
     14 C                     0.342337
     15 N                    -0.088453
     16 C                     0.355248
     17 C                     0.353734
     18 N                    -0.090090
     19 O                    -0.498761
     20 O                    -0.512965
     21 O                    -0.502302
     22 O                    -0.471178
     23 C                    -0.205654
     24 H                     0.139421
     25 H                     0.108514
     26 H                     0.108172
     27 C                    -0.198723
     28 H                     0.132958
     29 H                     0.111394
     30 H                     0.111842
     31 C                    -0.132772
     32 S                     0.033013
     33 C                    -0.137257
     34 C                    -0.087237
     35 C                    -0.239835
     36 H                     0.201452
     37 H                     0.196762
     38 H                     0.216640
     39 H                     0.135345
     40 H                     0.135738
     41 H                     0.196371
  ----------------------------------------
  Sum of atomic charges =     0.000000

                    Cartesian Multipole Moments
 -----------------------------------------------------------------
    Charge (ESU x 10^10)
                 0.0000
    Dipole Moment (Debye)
         X       1.4387      Y       2.8682      Z      -1.1265
       Tot       3.4008
    Quadrupole Moments (Debye-Ang)
        XX    -178.5012     XY      15.1183     YY    -190.9871
        XZ      15.9778     YZ      -3.2282     ZZ    -164.1314

 Total job time:  309.17s(wall), 8729.59s(cpu)
        *  Thank you very much for using Q-Chem.  Have a nice day.  *
