 Q-Chem 5.4, Q-Chem, Inc., Pleasanton, CA (2021)
 Q-Chem 5.4.0 for Intel X86 EM64T Linux

User input:
--------------------------------------------------------------
$molecule
0 1
C	0.252767	-6.741404	-0.046070
C	1.538656	-6.155638	-0.272935
C	-0.814966	-5.791452	0.141739
C	1.813042	-4.803786	-0.321083
H	2.403318	-6.821518	-0.425592
C	-0.527566	-4.378638	0.091779
C	0.782769	-3.838032	-0.138909
C	-1.556632	-3.413062	0.273808
C	1.067868	-2.426473	-0.188483
C	-1.285436	-2.059348	0.226610
C	0.000000	-1.478216	0.000000
H	-2.151019	-1.394783	0.379657
C	-2.235891	-6.187987	0.390420
C	-2.965540	-3.798164	0.522125
N	-3.205600	-5.170003	0.562731
C	3.225760	-4.424987	-0.570244
C	2.489646	-2.036627	-0.438407
N	3.459662	-3.049156	-0.610438
O	-2.621768	-7.353131	0.455563
O	-3.874608	-2.986854	0.683373
O	4.124059	-5.248946	-0.729367
O	2.896516	-0.878829	-0.508697
C	-4.596910	-5.563799	0.806996
H	-4.641640	-6.664085	0.813717
H	-5.246567	-5.147101	0.013655
H	-4.936739	-5.148785	1.775159
C	4.829729	-2.587487	-0.851572
H	5.462387	-3.483329	-0.964204
H	5.173914	-1.964972	-0.003956
H	4.863360	-1.962932	-1.764390
C	0.000000	0.000000	0.000000
S	0.137535	0.781156	1.580530
C	0.421895	2.393994	0.904911
C	0.173134	0.982857	-0.985400
C	0.402294	2.283058	-0.493528
H	0.132237	0.750786	-2.059934
H	0.555196	3.150621	-1.152593
H	0.574741	3.261310	1.556025
H	0.303328	-7.361589	0.857128
H	-0.007933	-7.361192	-0.912587
H	0.187017	-1.478831	1.063684
$end

$rem
JOBTYPE		SP
EXCHANGE	HF
CORRELATION	pRIMP2
BASIS		cc-pvtz
METHOD		rimp2
AUX_BASIS	rimp2-cc-pvtz
SOLVENT_METHOD	PCM
PURECART	11111
SYMMETRY	false
MEM_TOTAL	110000
SCF_CONVERGENCE = 6
THRESH=10
GUI = 2
$end

$solvent
dielectric 4.90
$end
--------------------------------------------------------------

             Standard Nuclear Orientation (Angstroms)
    I     Atom           X                Y                Z
 ----------------------------------------------------------------
    1      C       0.2527670000    -6.7414040000    -0.0460700000
    2      C       1.5386560000    -6.1556380000    -0.2729350000
    3      C      -0.8149660000    -5.7914520000     0.1417390000
    4      C       1.8130420000    -4.8037860000    -0.3210830000
    5      H       2.4033180000    -6.8215180000    -0.4255920000
    6      C      -0.5275660000    -4.3786380000     0.0917790000
    7      C       0.7827690000    -3.8380320000    -0.1389090000
    8      C      -1.5566320000    -3.4130620000     0.2738080000
    9      C       1.0678680000    -2.4264730000    -0.1884830000
   10      C      -1.2854360000    -2.0593480000     0.2266100000
   11      C       0.0000000000    -1.4782160000     0.0000000000
   12      H      -2.1510190000    -1.3947830000     0.3796570000
   13      C      -2.2358910000    -6.1879870000     0.3904200000
   14      C      -2.9655400000    -3.7981640000     0.5221250000
   15      N      -3.2056000000    -5.1700030000     0.5627310000
   16      C       3.2257600000    -4.4249870000    -0.5702440000
   17      C       2.4896460000    -2.0366270000    -0.4384070000
   18      N       3.4596620000    -3.0491560000    -0.6104380000
   19      O      -2.6217680000    -7.3531310000     0.4555630000
   20      O      -3.8746080000    -2.9868540000     0.6833730000
   21      O       4.1240590000    -5.2489460000    -0.7293670000
   22      O       2.8965160000    -0.8788290000    -0.5086970000
   23      C      -4.5969100000    -5.5637990000     0.8069960000
   24      H      -4.6416400000    -6.6640850000     0.8137170000
   25      H      -5.2465670000    -5.1471010000     0.0136550000
   26      H      -4.9367390000    -5.1487850000     1.7751590000
   27      C       4.8297290000    -2.5874870000    -0.8515720000
   28      H       5.4623870000    -3.4833290000    -0.9642040000
   29      H       5.1739140000    -1.9649720000    -0.0039560000
   30      H       4.8633600000    -1.9629320000    -1.7643900000
   31      C       0.0000000000     0.0000000000     0.0000000000
   32      S       0.1375350000     0.7811560000     1.5805300000
   33      C       0.4218950000     2.3939940000     0.9049110000
   34      C       0.1731340000     0.9828570000    -0.9854000000
   35      C       0.4022940000     2.2830580000    -0.4935280000
   36      H       0.1322370000     0.7507860000    -2.0599340000
   37      H       0.5551960000     3.1506210000    -1.1525930000
   38      H       0.5747410000     3.2613100000     1.5560250000
   39      H       0.3033280000    -7.3615890000     0.8571280000
   40      H      -0.0079330000    -7.3611920000    -0.9125870000
   41      H       0.1870170000    -1.4788310000     1.0636840000
 ----------------------------------------------------------------

   11   -1571.7438776763      5.57e-07  Convergence criterion met
 Total energy in the final basis set =    -1571.7438776763
        RIMP2         total energy =     -1576.3983573352 a.u.

                    Orbital Energies (a.u.)
 --------------------------------------------------------------

 Alpha MOs
 -- Occupied --
-91.9935 -20.5512 -20.5443 -20.5418 -20.5404 -15.6265 -15.6211 -11.3926
-11.3849 -11.3836 -11.3789 -11.3084 -11.3082 -11.3047 -11.3045 -11.2964
-11.2928 -11.2887 -11.2833 -11.2693 -11.2680 -11.2642 -11.2626 -11.2593
-11.2529 -11.2527 -11.2510  -8.9931  -6.6739  -6.6734  -6.6728  -1.4188
 -1.4121  -1.3967  -1.3913  -1.2617  -1.2553  -1.2298  -1.1869  -1.1526
 -1.1138  -1.0867  -1.0464  -0.9962  -0.9876  -0.9845  -0.9548  -0.9511
 -0.8959  -0.8869  -0.8765  -0.8599  -0.7932  -0.7755  -0.7732  -0.7686
 -0.7393  -0.7161  -0.7041  -0.6913  -0.6768  -0.6703  -0.6673  -0.6570
 -0.6469  -0.6413  -0.6379  -0.6317  -0.6308  -0.6266  -0.6227  -0.6050
 -0.5846  -0.5749  -0.5663  -0.5611  -0.5567  -0.5511  -0.5500  -0.5478
 -0.5458  -0.5436  -0.5214  -0.5165  -0.5085  -0.4806  -0.4745  -0.4694
 -0.4573  -0.4508  -0.4426  -0.4346  -0.4131  -0.4073  -0.3566  -0.3512
 -0.3275  -0.2903

          Ground-State Mulliken Net Atomic Charges

     Atom                 Charge (a.u.)
  ----------------------------------------
      1 C                    -0.084702
      2 C                    -0.030183
      3 C                    -0.110986
      4 C                    -0.120947
      5 H                     0.198527
      6 C                     0.008187
      7 C                     0.120586
      8 C                    -0.078058
      9 C                    -0.157896
     10 C                    -0.151830
     11 C                     0.252315
     12 H                     0.191843
     13 C                     0.343791
     14 C                     0.351350
     15 N                    -0.090204
     16 C                     0.357230
     17 C                     0.351683
     18 N                    -0.090766
     19 O                    -0.494094
     20 O                    -0.507264
     21 O                    -0.501844
     22 O                    -0.470330
     23 C                    -0.204748
     24 H                     0.139439
     25 H                     0.109154
     26 H                     0.109113
     27 C                    -0.197289
     28 H                     0.133082
     29 H                     0.111700
     30 H                     0.111267
     31 C                    -0.080522
     32 S                     0.009610
     33 C                    -0.214290
     34 C                    -0.162878
     35 C                    -0.203326
     36 H                     0.187102
     37 H                     0.190902
     38 H                     0.212992
     39 H                     0.137621
     40 H                     0.137805
     41 H                     0.186859
  ----------------------------------------
  Sum of atomic charges =     0.000000

                    Cartesian Multipole Moments
 -----------------------------------------------------------------
    Charge (ESU x 10^10)
                 0.0000
    Dipole Moment (Debye)
         X       1.3947      Y       2.3965      Z      -0.4330
       Tot       2.8064
    Quadrupole Moments (Debye-Ang)
        XX    -194.7540     XY      -6.7851     YY    -177.6147
        XZ       5.9145     YZ       1.0258     ZZ    -157.1723

 Total job time:  301.25s(wall), 8617.39s(cpu)
        *  Thank you very much for using Q-Chem.  Have a nice day.  *
