 Q-Chem 5.4, Q-Chem, Inc., Pleasanton, CA (2021)
 Q-Chem 5.4.0 for Intel X86 EM64T Linux

User input:
--------------------------------------------------------------
$molecule
0 1
C	0.241938	-6.741404	0.086486
C	1.468983	-6.155638	0.532960
C	-0.776651	-5.791452	-0.284733
C	1.730681	-4.803786	0.628455
H	2.294130	-6.821518	0.833086
C	-0.502775	-4.378638	-0.184300
C	0.747353	-3.838032	0.271086
C	-1.484986	-3.413062	-0.541191
C	1.019042	-2.426473	0.370703
C	-1.226525	-2.059348	-0.446468
C	0.000000	-1.478216	0.000000
H	-2.052666	-1.394783	-0.746717
C	-2.131549	-6.187987	-0.779832
C	-2.829295	-3.798164	-1.030596
N	-3.057496	-5.170003	-1.115461
C	3.078712	-4.424987	1.119034
C	2.375300	-2.036627	0.865151
N	3.301374	-3.049156	1.201176
O	-2.498300	-7.353131	-0.916355
O	-3.697195	-2.986854	-1.345486
O	3.936224	-5.248946	1.430379
O	2.762805	-0.878829	1.007714
C	-4.384539	-5.563799	-1.599576
H	-4.426636	-6.664085	-1.616121
H	-4.550487	-5.147101	-2.611458
H	-5.162921	-5.148785	-0.931037
C	4.608454	-2.587487	1.677382
H	5.212668	-3.483329	1.896168
H	4.482719	-1.964972	2.583531
H	5.093988	-1.962932	0.903674
C	0.000000	0.000000	0.000000
S	0.396411	0.687007	1.580530
C	1.215245	2.105322	0.904911
C	0.498850	0.864369	-0.985400
C	1.158885	2.007781	-0.493528
H	0.381046	0.660280	-2.059934
H	1.599289	2.770727	-1.152593
H	1.655514	2.868056	1.556025
H	-0.165874	-7.361589	0.893959
H	0.449423	-7.361192	-0.794290
H	-0.369880	-1.478831	1.014686
$end

$rem
JOBTYPE		SP
EXCHANGE	HF
CORRELATION	pRIMP2
BASIS		cc-pvtz
METHOD		rimp2
AUX_BASIS	rimp2-cc-pvtz
SOLVENT_METHOD	PCM
PURECART	11111
SYMMETRY	false
MEM_TOTAL	110000
SCF_CONVERGENCE = 6
THRESH=10
GUI = 2
$end

$solvent
dielectric 4.90
$end
--------------------------------------------------------------

             Standard Nuclear Orientation (Angstroms)
    I     Atom           X                Y                Z
 ----------------------------------------------------------------
    1      C       0.2419380000    -6.7414040000     0.0864860000
    2      C       1.4689830000    -6.1556380000     0.5329600000
    3      C      -0.7766510000    -5.7914520000    -0.2847330000
    4      C       1.7306810000    -4.8037860000     0.6284550000
    5      H       2.2941300000    -6.8215180000     0.8330860000
    6      C      -0.5027750000    -4.3786380000    -0.1843000000
    7      C       0.7473530000    -3.8380320000     0.2710860000
    8      C      -1.4849860000    -3.4130620000    -0.5411910000
    9      C       1.0190420000    -2.4264730000     0.3707030000
   10      C      -1.2265250000    -2.0593480000    -0.4464680000
   11      C       0.0000000000    -1.4782160000     0.0000000000
   12      H      -2.0526660000    -1.3947830000    -0.7467170000
   13      C      -2.1315490000    -6.1879870000    -0.7798320000
   14      C      -2.8292950000    -3.7981640000    -1.0305960000
   15      N      -3.0574960000    -5.1700030000    -1.1154610000
   16      C       3.0787120000    -4.4249870000     1.1190340000
   17      C       2.3753000000    -2.0366270000     0.8651510000
   18      N       3.3013740000    -3.0491560000     1.2011760000
   19      O      -2.4983000000    -7.3531310000    -0.9163550000
   20      O      -3.6971950000    -2.9868540000    -1.3454860000
   21      O       3.9362240000    -5.2489460000     1.4303790000
   22      O       2.7628050000    -0.8788290000     1.0077140000
   23      C      -4.3845390000    -5.5637990000    -1.5995760000
   24      H      -4.4266360000    -6.6640850000    -1.6161210000
   25      H      -4.5504870000    -5.1471010000    -2.6114580000
   26      H      -5.1629210000    -5.1487850000    -0.9310370000
   27      C       4.6084540000    -2.5874870000     1.6773820000
   28      H       5.2126680000    -3.4833290000     1.8961680000
   29      H       4.4827190000    -1.9649720000     2.5835310000
   30      H       5.0939880000    -1.9629320000     0.9036740000
   31      C       0.0000000000     0.0000000000     0.0000000000
   32      S       0.3964110000     0.6870070000     1.5805300000
   33      C       1.2152450000     2.1053220000     0.9049110000
   34      C       0.4988500000     0.8643690000    -0.9854000000
   35      C       1.1588850000     2.0077810000    -0.4935280000
   36      H       0.3810460000     0.6602800000    -2.0599340000
   37      H       1.5992890000     2.7707270000    -1.1525930000
   38      H       1.6555140000     2.8680560000     1.5560250000
   39      H      -0.1658740000    -7.3615890000     0.8939590000
   40      H       0.4494230000    -7.3611920000    -0.7942900000
   41      H      -0.3698800000    -1.4788310000     1.0146860000
 ----------------------------------------------------------------

   11   -1571.7230926356      5.70e-07  Convergence criterion met
 Total energy in the final basis set =    -1571.7230926356
        RIMP2         total energy =     -1576.3849436594 a.u.

                    Orbital Energies (a.u.)
 --------------------------------------------------------------

 Alpha MOs
 -- Occupied --
-91.9857 -20.5485 -20.5436 -20.5406 -20.5393 -15.6256 -15.6202 -11.3908
-11.3842 -11.3825 -11.3777 -11.3071 -11.3056 -11.3037 -11.3035 -11.2954
-11.2874 -11.2856 -11.2816 -11.2673 -11.2672 -11.2624 -11.2618 -11.2588
-11.2575 -11.2517 -11.2488  -8.9858  -6.6665  -6.6660  -6.6655  -1.4179
 -1.4112  -1.3960  -1.3903  -1.2608  -1.2544  -1.2281  -1.1855  -1.1510
 -1.1124  -1.0847  -1.0451  -0.9942  -0.9869  -0.9836  -0.9540  -0.9503
 -0.8943  -0.8849  -0.8758  -0.8590  -0.7900  -0.7746  -0.7740  -0.7674
 -0.7352  -0.7168  -0.7033  -0.6902  -0.6757  -0.6685  -0.6667  -0.6562
 -0.6459  -0.6392  -0.6369  -0.6310  -0.6300  -0.6257  -0.6229  -0.6035
 -0.5835  -0.5728  -0.5680  -0.5608  -0.5561  -0.5505  -0.5495  -0.5474
 -0.5470  -0.5427  -0.5174  -0.5111  -0.5057  -0.4800  -0.4713  -0.4655
 -0.4536  -0.4471  -0.4414  -0.4334  -0.4128  -0.4066  -0.3514  -0.3461
 -0.3286  -0.2883

          Ground-State Mulliken Net Atomic Charges

     Atom                 Charge (a.u.)
  ----------------------------------------
      1 C                    -0.083876
      2 C                    -0.031972
      3 C                    -0.114883
      4 C                    -0.119520
      5 H                     0.198168
      6 C                     0.008996
      7 C                     0.117090
      8 C                    -0.077032
      9 C                    -0.174499
     10 C                    -0.159236
     11 C                     0.227184
     12 H                     0.191124
     13 C                     0.342637
     14 C                     0.348424
     15 N                    -0.089828
     16 C                     0.355597
     17 C                     0.363326
     18 N                    -0.088988
     19 O                    -0.495780
     20 O                    -0.508237
     21 O                    -0.502549
     22 O                    -0.466832
     23 C                    -0.204962
     24 H                     0.139235
     25 H                     0.108758
     26 H                     0.108924
     27 C                    -0.197610
     28 H                     0.133111
     29 H                     0.110649
     30 H                     0.111134
     31 C                    -0.059833
     32 S                     0.015456
     33 C                    -0.182983
     34 C                    -0.171178
     35 C                    -0.203979
     36 H                     0.188968
     37 H                     0.190239
     38 H                     0.211847
     39 H                     0.136827
     40 H                     0.136938
     41 H                     0.189145
  ----------------------------------------
  Sum of atomic charges =     0.000000

                    Cartesian Multipole Moments
 -----------------------------------------------------------------
    Charge (ESU x 10^10)
                 0.0000
    Dipole Moment (Debye)
         X       2.1784      Y       2.6774      Z       0.1945
       Tot       3.4571
    Quadrupole Moments (Debye-Ang)
        XX    -189.4421     XY      -2.6926     YY    -182.6405
        XZ      -9.8227     YZ      -3.5427     ZZ    -159.9173

 Total job time:  309.81s(wall), 9576.59s(cpu)
        *  Thank you very much for using Q-Chem.  Have a nice day.  *
