 Q-Chem 5.4, Q-Chem, Inc., Pleasanton, CA (2021)
 Q-Chem 5.4.0 for Intel X86 EM64T Linux

User input:
--------------------------------------------------------------
$molecule
0 1
C	-0.086486	-6.741404	0.241938
C	-0.532960	-6.155638	1.468983
C	0.284733	-5.791452	-0.776651
C	-0.628455	-4.803786	1.730681
H	-0.833086	-6.821518	2.294130
C	0.184300	-4.378638	-0.502775
C	-0.271086	-3.838032	0.747353
C	0.541191	-3.413062	-1.484986
C	-0.370703	-2.426473	1.019042
C	0.446468	-2.059348	-1.226525
C	0.000000	-1.478216	0.000000
H	0.746717	-1.394783	-2.052666
C	0.779832	-6.187987	-2.131549
C	1.030596	-3.798164	-2.829295
N	1.115461	-5.170003	-3.057496
C	-1.119034	-4.424987	3.078712
C	-0.865151	-2.036627	2.375300
N	-1.201176	-3.049156	3.301374
O	0.916355	-7.353131	-2.498300
O	1.345486	-2.986854	-3.697195
O	-1.430379	-5.248946	3.936224
O	-1.007714	-0.878829	2.762805
C	1.599576	-5.563799	-4.384539
H	1.616121	-6.664085	-4.426636
H	2.611458	-5.147101	-4.550487
H	0.931037	-5.148785	-5.162921
C	-1.677382	-2.587487	4.608454
H	-1.896168	-3.483329	5.212668
H	-2.583531	-1.964972	4.482719
H	-0.903674	-1.962932	5.093988
C	0.000000	0.000000	0.000000
S	0.137535	0.781156	1.580530
C	0.421895	2.393994	0.904911
C	0.173134	0.982857	-0.985400
C	0.402294	2.283058	-0.493528
H	0.132237	0.750786	-2.059934
H	0.555196	3.150621	-1.152593
H	0.574741	3.261310	1.556025
H	-0.893959	-7.361589	-0.165874
H	0.794290	-7.361192	0.449423
H	-1.014686	-1.478831	-0.369880
$end

$rem
JOBTYPE		SP
EXCHANGE	HF
CORRELATION	pRIMP2
BASIS		cc-pvtz
METHOD		rimp2
AUX_BASIS	rimp2-cc-pvtz
SOLVENT_METHOD	PCM
PURECART	11111
SYMMETRY	false
MEM_TOTAL	110000
SCF_CONVERGENCE = 6
THRESH=10
GUI = 2
$end

$solvent
dielectric 4.90
$end
--------------------------------------------------------------

             Standard Nuclear Orientation (Angstroms)
    I     Atom           X                Y                Z
 ----------------------------------------------------------------
    1      C      -0.0864860000    -6.7414040000     0.2419380000
    2      C      -0.5329600000    -6.1556380000     1.4689830000
    3      C       0.2847330000    -5.7914520000    -0.7766510000
    4      C      -0.6284550000    -4.8037860000     1.7306810000
    5      H      -0.8330860000    -6.8215180000     2.2941300000
    6      C       0.1843000000    -4.3786380000    -0.5027750000
    7      C      -0.2710860000    -3.8380320000     0.7473530000
    8      C       0.5411910000    -3.4130620000    -1.4849860000
    9      C      -0.3707030000    -2.4264730000     1.0190420000
   10      C       0.4464680000    -2.0593480000    -1.2265250000
   11      C       0.0000000000    -1.4782160000     0.0000000000
   12      H       0.7467170000    -1.3947830000    -2.0526660000
   13      C       0.7798320000    -6.1879870000    -2.1315490000
   14      C       1.0305960000    -3.7981640000    -2.8292950000
   15      N       1.1154610000    -5.1700030000    -3.0574960000
   16      C      -1.1190340000    -4.4249870000     3.0787120000
   17      C      -0.8651510000    -2.0366270000     2.3753000000
   18      N      -1.2011760000    -3.0491560000     3.3013740000
   19      O       0.9163550000    -7.3531310000    -2.4983000000
   20      O       1.3454860000    -2.9868540000    -3.6971950000
   21      O      -1.4303790000    -5.2489460000     3.9362240000
   22      O      -1.0077140000    -0.8788290000     2.7628050000
   23      C       1.5995760000    -5.5637990000    -4.3845390000
   24      H       1.6161210000    -6.6640850000    -4.4266360000
   25      H       2.6114580000    -5.1471010000    -4.5504870000
   26      H       0.9310370000    -5.1487850000    -5.1629210000
   27      C      -1.6773820000    -2.5874870000     4.6084540000
   28      H      -1.8961680000    -3.4833290000     5.2126680000
   29      H      -2.5835310000    -1.9649720000     4.4827190000
   30      H      -0.9036740000    -1.9629320000     5.0939880000
   31      C       0.0000000000     0.0000000000     0.0000000000
   32      S       0.1375350000     0.7811560000     1.5805300000
   33      C       0.4218950000     2.3939940000     0.9049110000
   34      C       0.1731340000     0.9828570000    -0.9854000000
   35      C       0.4022940000     2.2830580000    -0.4935280000
   36      H       0.1322370000     0.7507860000    -2.0599340000
   37      H       0.5551960000     3.1506210000    -1.1525930000
   38      H       0.5747410000     3.2613100000     1.5560250000
   39      H      -0.8939590000    -7.3615890000    -0.1658740000
   40      H       0.7942900000    -7.3611920000     0.4494230000
   41      H      -1.0146860000    -1.4788310000    -0.3698800000
 ----------------------------------------------------------------

   11   -1571.7147119035      5.95e-07  Convergence criterion met
 Total energy in the final basis set =    -1571.7147119035
        RIMP2         total energy =     -1576.3799419459 a.u.

                    Orbital Energies (a.u.)
 --------------------------------------------------------------

 Alpha MOs
 -- Occupied --
-91.9738 -20.5547 -20.5462 -20.5426 -20.5416 -15.6298 -15.6223 -11.3985
-11.3870 -11.3845 -11.3802 -11.3123 -11.3101 -11.3085 -11.3061 -11.2990
-11.2957 -11.2918 -11.2708 -11.2700 -11.2665 -11.2644 -11.2620 -11.2600
-11.2542 -11.2479 -11.2400  -8.9737  -6.6542  -6.6532  -6.6525  -1.4275
 -1.4131  -1.4017  -1.3923  -1.2661  -1.2565  -1.2316  -1.1857  -1.1474
 -1.1159  -1.0870  -1.0491  -0.9942  -0.9892  -0.9764  -0.9563  -0.9486
 -0.8979  -0.8909  -0.8793  -0.8625  -0.7926  -0.7805  -0.7743  -0.7585
 -0.7331  -0.7217  -0.7022  -0.6903  -0.6860  -0.6767  -0.6684  -0.6589
 -0.6504  -0.6471  -0.6375  -0.6332  -0.6327  -0.6322  -0.6223  -0.6060
 -0.5886  -0.5731  -0.5653  -0.5620  -0.5578  -0.5537  -0.5526  -0.5496
 -0.5486  -0.5453  -0.5205  -0.5130  -0.5121  -0.4859  -0.4790  -0.4633
 -0.4560  -0.4450  -0.4377  -0.4232  -0.4087  -0.4053  -0.3552  -0.3383
 -0.3277  -0.2782

          Ground-State Mulliken Net Atomic Charges

     Atom                 Charge (a.u.)
  ----------------------------------------
      1 C                    -0.084219
      2 C                    -0.029171
      3 C                    -0.106829
      4 C                    -0.124028
      5 H                     0.200009
      6 C                     0.025045
      7 C                     0.131352
      8 C                    -0.091671
      9 C                    -0.172778
     10 C                    -0.164752
     11 C                     0.224692
     12 H                     0.190882
     13 C                     0.341657
     14 C                     0.350361
     15 N                    -0.090333
     16 C                     0.358117
     17 C                     0.376501
     18 N                    -0.090419
     19 O                    -0.493667
     20 O                    -0.507642
     21 O                    -0.499963
     22 O                    -0.465536
     23 C                    -0.204757
     24 H                     0.139651
     25 H                     0.109589
     26 H                     0.109273
     27 C                    -0.198034
     28 H                     0.134478
     29 H                     0.112215
     30 H                     0.113022
     31 C                    -0.042773
     32 S                     0.076836
     33 C                    -0.253552
     34 C                    -0.208186
     35 C                    -0.223381
     36 H                     0.178665
     37 H                     0.183496
     38 H                     0.204045
     39 H                     0.138499
     40 H                     0.139047
     41 H                     0.214261
  ----------------------------------------
  Sum of atomic charges =     0.000000

                    Cartesian Multipole Moments
 -----------------------------------------------------------------
    Charge (ESU x 10^10)
                 0.0000
    Dipole Moment (Debye)
         X      -1.3197      Y       0.6102      Z       0.5078
       Tot       1.5400
    Quadrupole Moments (Debye-Ang)
        XX    -165.9957     XY       5.9953     YY    -177.6061
        XZ       9.8187     YZ      -8.0569     ZZ    -183.6193

 Total job time:  329.67s(wall), 9856.40s(cpu)
        *  Thank you very much for using Q-Chem.  Have a nice day.  *
