 Q-Chem 5.4, Q-Chem, Inc., Pleasanton, CA (2021)
 Q-Chem 5.4.0 for Intel X86 EM64T Linux

User input:
--------------------------------------------------------------
$molecule
0 1
C	-0.253280	-6.741404	-0.043160
C	-1.539213	-6.155638	-0.269777
C	0.814295	-5.791452	0.145543
C	-1.813519	-4.803786	-0.318377
H	-2.403941	-6.821518	-0.422058
C	0.527140	-4.378638	0.094194
C	-0.783072	-3.838032	-0.137191
C	1.556403	-3.413062	0.275104
C	-1.067932	-2.426473	-0.188116
C	1.285420	-2.059348	0.226701
C	-0.000000	-1.478216	-0.000000
H	2.151147	-1.394783	0.378931
C	2.234582	-6.187987	0.397845
C	2.965273	-3.798164	0.523637
N	3.204744	-5.170003	0.567586
C	-3.226257	-4.424987	-0.567421
C	-2.489446	-2.036627	-0.439541
N	-3.459801	-3.049156	-0.609650
O	2.619468	-7.353131	0.468608
O	3.874668	-2.986854	0.683034
O	-4.124806	-5.248946	-0.725131
O	-2.895819	-0.878829	-0.512648
C	4.595691	-5.563799	0.813908
H	4.640022	-6.664085	0.822891
H	4.934830	-5.147101	1.781600
H	5.246157	-5.148785	0.020360
C	-4.829716	-2.587487	-0.851649
H	-5.462742	-3.483329	-0.962191
H	-4.863242	-1.964972	-1.765865
H	-5.173521	-1.962932	-0.005383
C	0.000000	0.000000	0.000000
S	0.335026	0.718942	1.580530
C	1.027130	2.203226	0.904911
C	0.421617	0.904557	-0.985400
C	0.979485	2.101144	-0.493528
H	0.322049	0.690978	-2.059934
H	1.351718	2.899571	-1.152593
H	1.399246	3.001430	1.556025
H	0.008120	-7.361589	-0.909181
H	-0.304668	-7.361192	0.860264
H	0.188062	-1.478831	-1.063500
$end

$rem
JOBTYPE		SP
EXCHANGE	HF
CORRELATION	pRIMP2
BASIS		cc-pvtz
METHOD		rimp2
AUX_BASIS	rimp2-cc-pvtz
SOLVENT_METHOD	PCM
PURECART	11111
SYMMETRY	false
MEM_TOTAL	110000
SCF_CONVERGENCE = 6
THRESH=10
GUI = 2
$end

$solvent
dielectric 4.90
$end
--------------------------------------------------------------

             Standard Nuclear Orientation (Angstroms)
    I     Atom           X                Y                Z
 ----------------------------------------------------------------
    1      C      -0.2532800000    -6.7414040000    -0.0431600000
    2      C      -1.5392130000    -6.1556380000    -0.2697770000
    3      C       0.8142950000    -5.7914520000     0.1455430000
    4      C      -1.8135190000    -4.8037860000    -0.3183770000
    5      H      -2.4039410000    -6.8215180000    -0.4220580000
    6      C       0.5271400000    -4.3786380000     0.0941940000
    7      C      -0.7830720000    -3.8380320000    -0.1371910000
    8      C       1.5564030000    -3.4130620000     0.2751040000
    9      C      -1.0679320000    -2.4264730000    -0.1881160000
   10      C       1.2854200000    -2.0593480000     0.2267010000
   11      C       0.0000000000    -1.4782160000     0.0000000000
   12      H       2.1511470000    -1.3947830000     0.3789310000
   13      C       2.2345820000    -6.1879870000     0.3978450000
   14      C       2.9652730000    -3.7981640000     0.5236370000
   15      N       3.2047440000    -5.1700030000     0.5675860000
   16      C      -3.2262570000    -4.4249870000    -0.5674210000
   17      C      -2.4894460000    -2.0366270000    -0.4395410000
   18      N      -3.4598010000    -3.0491560000    -0.6096500000
   19      O       2.6194680000    -7.3531310000     0.4686080000
   20      O       3.8746680000    -2.9868540000     0.6830340000
   21      O      -4.1248060000    -5.2489460000    -0.7251310000
   22      O      -2.8958190000    -0.8788290000    -0.5126480000
   23      C       4.5956910000    -5.5637990000     0.8139080000
   24      H       4.6400220000    -6.6640850000     0.8228910000
   25      H       4.9348300000    -5.1471010000     1.7816000000
   26      H       5.2461570000    -5.1487850000     0.0203600000
   27      C      -4.8297160000    -2.5874870000    -0.8516490000
   28      H      -5.4627420000    -3.4833290000    -0.9621910000
   29      H      -4.8632420000    -1.9649720000    -1.7658650000
   30      H      -5.1735210000    -1.9629320000    -0.0053830000
   31      C       0.0000000000     0.0000000000     0.0000000000
   32      S       0.3350260000     0.7189420000     1.5805300000
   33      C       1.0271300000     2.2032260000     0.9049110000
   34      C       0.4216170000     0.9045570000    -0.9854000000
   35      C       0.9794850000     2.1011440000    -0.4935280000
   36      H       0.3220490000     0.6909780000    -2.0599340000
   37      H       1.3517180000     2.8995710000    -1.1525930000
   38      H       1.3992460000     3.0014300000     1.5560250000
   39      H       0.0081200000    -7.3615890000    -0.9091810000
   40      H      -0.3046680000    -7.3611920000     0.8602640000
   41      H       0.1880620000    -1.4788310000    -1.0635000000
 ----------------------------------------------------------------

   11   -1571.7410369756      5.44e-07  Convergence criterion met
 Total energy in the final basis set =    -1571.7410369756
        RIMP2         total energy =     -1576.3972549104 a.u.

                    Orbital Energies (a.u.)
 --------------------------------------------------------------

 Alpha MOs
 -- Occupied --
-91.9888 -20.5526 -20.5442 -20.5418 -20.5407 -15.6267 -15.6213 -11.3933
-11.3849 -11.3836 -11.3793 -11.3090 -11.3069 -11.3045 -11.3039 -11.2957
-11.2956 -11.2887 -11.2846 -11.2690 -11.2676 -11.2651 -11.2626 -11.2594
-11.2594 -11.2524 -11.2522  -8.9887  -6.6695  -6.6690  -6.6684  -1.4194
 -1.4123  -1.3970  -1.3914  -1.2619  -1.2554  -1.2299  -1.1879  -1.1528
 -1.1139  -1.0859  -1.0463  -0.9964  -0.9876  -0.9867  -0.9551  -0.9505
 -0.8965  -0.8874  -0.8761  -0.8592  -0.7952  -0.7774  -0.7705  -0.7630
 -0.7426  -0.7173  -0.7043  -0.6916  -0.6816  -0.6716  -0.6664  -0.6571
 -0.6468  -0.6435  -0.6356  -0.6332  -0.6307  -0.6274  -0.6218  -0.6045
 -0.5844  -0.5760  -0.5683  -0.5613  -0.5567  -0.5511  -0.5506  -0.5480
 -0.5473  -0.5434  -0.5206  -0.5145  -0.5074  -0.4831  -0.4754  -0.4629
 -0.4586  -0.4512  -0.4428  -0.4345  -0.4133  -0.4073  -0.3590  -0.3489
 -0.3289  -0.2895

          Ground-State Mulliken Net Atomic Charges

     Atom                 Charge (a.u.)
  ----------------------------------------
      1 C                    -0.084611
      2 C                    -0.032898
      3 C                    -0.111143
      4 C                    -0.120541
      5 H                     0.198362
      6 C                     0.018378
      7 C                     0.118544
      8 C                    -0.095787
      9 C                    -0.180299
     10 C                    -0.096621
     11 C                     0.140266
     12 H                     0.202034
     13 C                     0.343926
     14 C                     0.343832
     15 N                    -0.090062
     16 C                     0.357334
     17 C                     0.347478
     18 N                    -0.092743
     19 O                    -0.494235
     20 O                    -0.506749
     21 O                    -0.501658
     22 O                    -0.471481
     23 C                    -0.204872
     24 H                     0.139526
     25 H                     0.109302
     26 H                     0.108915
     27 C                    -0.197098
     28 H                     0.133087
     29 H                     0.111025
     30 H                     0.112125
     31 C                     0.033760
     32 S                     0.010724
     33 C                    -0.207609
     34 C                    -0.208197
     35 C                    -0.196134
     36 H                     0.184140
     37 H                     0.193632
     38 H                     0.211008
     39 H                     0.137188
     40 H                     0.137484
     41 H                     0.200670
  ----------------------------------------
  Sum of atomic charges =     0.000000

                    Cartesian Multipole Moments
 -----------------------------------------------------------------
    Charge (ESU x 10^10)
                 0.0000
    Dipole Moment (Debye)
         X       0.2200      Y       2.2727      Z      -1.9717
       Tot       3.0167
    Quadrupole Moments (Debye-Ang)
        XX    -193.0557     XY      12.5746     YY    -179.9241
        XZ      -5.4063     YZ       3.3549     ZZ    -157.1771

 Total job time:  296.69s(wall), 9009.70s(cpu)
        *  Thank you very much for using Q-Chem.  Have a nice day.  *
