 Q-Chem 5.4, Q-Chem, Inc., Pleasanton, CA (2021)
 Q-Chem 5.4.0 for Intel X86 EM64T Linux

User input:
--------------------------------------------------------------
$molecule
0 1
C	-0.043160	-6.741404	0.253280
C	-0.269777	-6.155638	1.539213
C	0.145543	-5.791452	-0.814295
C	-0.318377	-4.803786	1.813519
H	-0.422058	-6.821518	2.403941
C	0.094194	-4.378638	-0.527140
C	-0.137191	-3.838032	0.783072
C	0.275104	-3.413062	-1.556403
C	-0.188116	-2.426473	1.067932
C	0.226701	-2.059348	-1.285420
C	0.000000	-1.478216	0.000000
H	0.378931	-1.394783	-2.151147
C	0.397845	-6.187987	-2.234582
C	0.523637	-3.798164	-2.965273
N	0.567586	-5.170003	-3.204744
C	-0.567421	-4.424987	3.226257
C	-0.439541	-2.036627	2.489446
N	-0.609650	-3.049156	3.459801
O	0.468608	-7.353131	-2.619468
O	0.683034	-2.986854	-3.874668
O	-0.725131	-5.248946	4.124806
O	-0.512648	-0.878829	2.895819
C	0.813908	-5.563799	-4.595691
H	0.822891	-6.664085	-4.640022
H	1.781600	-5.147101	-4.934830
H	0.020360	-5.148785	-5.246157
C	-0.851649	-2.587487	4.829716
H	-0.962191	-3.483329	5.462742
H	-1.765865	-1.964972	4.863242
H	-0.005383	-1.962932	5.173521
C	0.000000	0.000000	0.000000
S	0.509686	0.607733	1.580530
C	1.562368	1.862312	0.904911
C	0.641367	0.764613	-0.985400
C	1.489926	1.776040	-0.493528
H	0.489914	0.584081	-2.059934
H	2.056124	2.450920	-1.152593
H	2.128395	2.537007	1.556025
H	-0.909181	-7.361589	-0.008120
H	0.860264	-7.361192	0.304668
H	-1.063500	-1.478831	-0.188062
$end

$rem
JOBTYPE		SP
EXCHANGE	HF
CORRELATION	pRIMP2
BASIS		cc-pvtz
METHOD		rimp2
AUX_BASIS	rimp2-cc-pvtz
SOLVENT_METHOD	PCM
PURECART	11111
SYMMETRY	false
MEM_TOTAL	110000
SCF_CONVERGENCE = 6
THRESH=10
GUI = 2
$end

$solvent
dielectric 4.90
$end
--------------------------------------------------------------

             Standard Nuclear Orientation (Angstroms)
    I     Atom           X                Y                Z
 ----------------------------------------------------------------
    1      C      -0.0431600000    -6.7414040000     0.2532800000
    2      C      -0.2697770000    -6.1556380000     1.5392130000
    3      C       0.1455430000    -5.7914520000    -0.8142950000
    4      C      -0.3183770000    -4.8037860000     1.8135190000
    5      H      -0.4220580000    -6.8215180000     2.4039410000
    6      C       0.0941940000    -4.3786380000    -0.5271400000
    7      C      -0.1371910000    -3.8380320000     0.7830720000
    8      C       0.2751040000    -3.4130620000    -1.5564030000
    9      C      -0.1881160000    -2.4264730000     1.0679320000
   10      C       0.2267010000    -2.0593480000    -1.2854200000
   11      C       0.0000000000    -1.4782160000     0.0000000000
   12      H       0.3789310000    -1.3947830000    -2.1511470000
   13      C       0.3978450000    -6.1879870000    -2.2345820000
   14      C       0.5236370000    -3.7981640000    -2.9652730000
   15      N       0.5675860000    -5.1700030000    -3.2047440000
   16      C      -0.5674210000    -4.4249870000     3.2262570000
   17      C      -0.4395410000    -2.0366270000     2.4894460000
   18      N      -0.6096500000    -3.0491560000     3.4598010000
   19      O       0.4686080000    -7.3531310000    -2.6194680000
   20      O       0.6830340000    -2.9868540000    -3.8746680000
   21      O      -0.7251310000    -5.2489460000     4.1248060000
   22      O      -0.5126480000    -0.8788290000     2.8958190000
   23      C       0.8139080000    -5.5637990000    -4.5956910000
   24      H       0.8228910000    -6.6640850000    -4.6400220000
   25      H       1.7816000000    -5.1471010000    -4.9348300000
   26      H       0.0203600000    -5.1487850000    -5.2461570000
   27      C      -0.8516490000    -2.5874870000     4.8297160000
   28      H      -0.9621910000    -3.4833290000     5.4627420000
   29      H      -1.7658650000    -1.9649720000     4.8632420000
   30      H      -0.0053830000    -1.9629320000     5.1735210000
   31      C       0.0000000000     0.0000000000     0.0000000000
   32      S       0.5096860000     0.6077330000     1.5805300000
   33      C       1.5623680000     1.8623120000     0.9049110000
   34      C       0.6413670000     0.7646130000    -0.9854000000
   35      C       1.4899260000     1.7760400000    -0.4935280000
   36      H       0.4899140000     0.5840810000    -2.0599340000
   37      H       2.0561240000     2.4509200000    -1.1525930000
   38      H       2.1283950000     2.5370070000     1.5560250000
   39      H      -0.9091810000    -7.3615890000    -0.0081200000
   40      H       0.8602640000    -7.3611920000     0.3046680000
   41      H      -1.0635000000    -1.4788310000    -0.1880620000
 ----------------------------------------------------------------

   11   -1571.6723739188      6.03e-07  Convergence criterion met
 Total energy in the final basis set =    -1571.6723739188
        RIMP2         total energy =     -1576.3484101702 a.u.

                    Orbital Energies (a.u.)
 --------------------------------------------------------------

 Alpha MOs
 -- Occupied --
-91.9712 -20.5579 -20.5460 -20.5402 -20.5401 -15.6305 -15.6208 -11.3998
-11.3867 -11.3823 -11.3786 -11.3097 -11.3081 -11.3075 -11.3044 -11.2975
-11.2863 -11.2806 -11.2690 -11.2689 -11.2668 -11.2647 -11.2638 -11.2592
-11.2570 -11.2524 -11.2418  -8.9715  -6.6519  -6.6506  -6.6498  -1.4314
 -1.4115  -1.4025  -1.3906  -1.2670  -1.2551  -1.2304  -1.1861  -1.1479
 -1.1143  -1.0846  -1.0477  -0.9948  -0.9887  -0.9803  -0.9557  -0.9479
 -0.8975  -0.8895  -0.8785  -0.8612  -0.7901  -0.7813  -0.7746  -0.7614
 -0.7303  -0.7237  -0.7016  -0.6905  -0.6873  -0.6757  -0.6683  -0.6581
 -0.6503  -0.6441  -0.6367  -0.6322  -0.6320  -0.6308  -0.6217  -0.6061
 -0.5900  -0.5722  -0.5680  -0.5626  -0.5602  -0.5550  -0.5522  -0.5487
 -0.5473  -0.5449  -0.5248  -0.5106  -0.5088  -0.4886  -0.4689  -0.4611
 -0.4543  -0.4432  -0.4365  -0.4212  -0.4073  -0.3920  -0.3539  -0.3432
 -0.3293  -0.2741

          Ground-State Mulliken Net Atomic Charges

     Atom                 Charge (a.u.)
  ----------------------------------------
      1 C                    -0.084487
      2 C                    -0.030151
      3 C                    -0.112089
      4 C                    -0.121868
      5 H                     0.199010
      6 C                     0.020385
      7 C                     0.114878
      8 C                    -0.088919
      9 C                    -0.187766
     10 C                    -0.136892
     11 C                     0.175807
     12 H                     0.188062
     13 C                     0.340286
     14 C                     0.348344
     15 N                    -0.089591
     16 C                     0.357320
     17 C                     0.382888
     18 N                    -0.088000
     19 O                    -0.497045
     20 O                    -0.510864
     21 O                    -0.499888
     22 O                    -0.460428
     23 C                    -0.205289
     24 H                     0.139550
     25 H                     0.108995
     26 H                     0.108817
     27 C                    -0.198239
     28 H                     0.134869
     29 H                     0.112185
     30 H                     0.113100
     31 C                    -0.022200
     32 S                     0.085073
     33 C                    -0.233892
     34 C                    -0.202175
     35 C                    -0.220349
     36 H                     0.184798
     37 H                     0.183988
     38 H                     0.203096
     39 H                     0.136981
     40 H                     0.137372
     41 H                     0.214327
  ----------------------------------------
  Sum of atomic charges =     0.000000

                    Cartesian Multipole Moments
 -----------------------------------------------------------------
    Charge (ESU x 10^10)
                 0.0000
    Dipole Moment (Debye)
         X      -0.1794      Y       1.3858      Z       0.9884
       Tot       1.7116
    Quadrupole Moments (Debye-Ang)
        XX    -159.6836     XY       7.6990     YY    -184.7270
        XZ       5.7548     YZ      -9.8842     ZZ    -186.0674

 Total job time:  309.41s(wall), 9316.64s(cpu)
        *  Thank you very much for using Q-Chem.  Have a nice day.  *
