 Q-Chem 5.4, Q-Chem, Inc., Pleasanton, CA (2021)
 Q-Chem 5.4.0 for Intel X86 EM64T Linux

User input:
--------------------------------------------------------------
$molecule
0 1
C	0.241938	-6.741404	0.086486
C	1.468983	-6.155638	0.532960
C	-0.776651	-5.791452	-0.284733
C	1.730681	-4.803786	0.628455
H	2.294130	-6.821518	0.833086
C	-0.502775	-4.378638	-0.184300
C	0.747353	-3.838032	0.271086
C	-1.484986	-3.413062	-0.541191
C	1.019042	-2.426473	0.370703
C	-1.226525	-2.059348	-0.446468
C	0.000000	-1.478216	0.000000
H	-2.052666	-1.394783	-0.746717
C	-2.131549	-6.187987	-0.779832
C	-2.829295	-3.798164	-1.030596
N	-3.057496	-5.170003	-1.115461
C	3.078712	-4.424987	1.119034
C	2.375300	-2.036627	0.865151
N	3.301374	-3.049156	1.201176
O	-2.498300	-7.353131	-0.916355
O	-3.697195	-2.986854	-1.345486
O	3.936224	-5.248946	1.430379
O	2.762805	-0.878829	1.007714
C	-4.384539	-5.563799	-1.599576
H	-4.426636	-6.664085	-1.616121
H	-4.550487	-5.147101	-2.611458
H	-5.162921	-5.148785	-0.931037
C	4.608454	-2.587487	1.677382
H	5.212668	-3.483329	1.896168
H	4.482719	-1.964972	2.583531
H	5.093988	-1.962932	0.903674
C	0.000000	0.000000	0.000000
S	0.205093	0.766196	1.580530
C	0.628939	2.348114	0.904911
C	0.258137	0.964028	-0.985400
C	0.599745	2.239309	-0.493528
H	0.197169	0.736404	-2.059934
H	0.827678	3.090243	-1.152593
H	0.856796	3.198808	1.556025
H	-0.165874	-7.361589	0.893959
H	0.449423	-7.361192	-0.794290
H	-0.369880	-1.478831	1.014686
$end

$rem
JOBTYPE		SP
EXCHANGE	HF
CORRELATION	pRIMP2
BASIS		cc-pvtz
METHOD		rimp2
AUX_BASIS	rimp2-cc-pvtz
SOLVENT_METHOD	PCM
PURECART	11111
SYMMETRY	false
MEM_TOTAL	110000
SCF_CONVERGENCE = 6
THRESH=10
GUI = 2
$end

$solvent
dielectric 4.90
$end
--------------------------------------------------------------

             Standard Nuclear Orientation (Angstroms)
    I     Atom           X                Y                Z
 ----------------------------------------------------------------
    1      C       0.2419380000    -6.7414040000     0.0864860000
    2      C       1.4689830000    -6.1556380000     0.5329600000
    3      C      -0.7766510000    -5.7914520000    -0.2847330000
    4      C       1.7306810000    -4.8037860000     0.6284550000
    5      H       2.2941300000    -6.8215180000     0.8330860000
    6      C      -0.5027750000    -4.3786380000    -0.1843000000
    7      C       0.7473530000    -3.8380320000     0.2710860000
    8      C      -1.4849860000    -3.4130620000    -0.5411910000
    9      C       1.0190420000    -2.4264730000     0.3707030000
   10      C      -1.2265250000    -2.0593480000    -0.4464680000
   11      C       0.0000000000    -1.4782160000     0.0000000000
   12      H      -2.0526660000    -1.3947830000    -0.7467170000
   13      C      -2.1315490000    -6.1879870000    -0.7798320000
   14      C      -2.8292950000    -3.7981640000    -1.0305960000
   15      N      -3.0574960000    -5.1700030000    -1.1154610000
   16      C       3.0787120000    -4.4249870000     1.1190340000
   17      C       2.3753000000    -2.0366270000     0.8651510000
   18      N       3.3013740000    -3.0491560000     1.2011760000
   19      O      -2.4983000000    -7.3531310000    -0.9163550000
   20      O      -3.6971950000    -2.9868540000    -1.3454860000
   21      O       3.9362240000    -5.2489460000     1.4303790000
   22      O       2.7628050000    -0.8788290000     1.0077140000
   23      C      -4.3845390000    -5.5637990000    -1.5995760000
   24      H      -4.4266360000    -6.6640850000    -1.6161210000
   25      H      -4.5504870000    -5.1471010000    -2.6114580000
   26      H      -5.1629210000    -5.1487850000    -0.9310370000
   27      C       4.6084540000    -2.5874870000     1.6773820000
   28      H       5.2126680000    -3.4833290000     1.8961680000
   29      H       4.4827190000    -1.9649720000     2.5835310000
   30      H       5.0939880000    -1.9629320000     0.9036740000
   31      C       0.0000000000     0.0000000000     0.0000000000
   32      S       0.2050930000     0.7661960000     1.5805300000
   33      C       0.6289390000     2.3481140000     0.9049110000
   34      C       0.2581370000     0.9640280000    -0.9854000000
   35      C       0.5997450000     2.2393090000    -0.4935280000
   36      H       0.1971690000     0.7364040000    -2.0599340000
   37      H       0.8276780000     3.0902430000    -1.1525930000
   38      H       0.8567960000     3.1988080000     1.5560250000
   39      H      -0.1658740000    -7.3615890000     0.8939590000
   40      H       0.4494230000    -7.3611920000    -0.7942900000
   41      H      -0.3698800000    -1.4788310000     1.0146860000
 ----------------------------------------------------------------

   11   -1571.7390299063      5.64e-07  Convergence criterion met
 Total energy in the final basis set =    -1571.7390299063
        RIMP2         total energy =     -1576.3959092816 a.u.

                    Orbital Energies (a.u.)
 --------------------------------------------------------------

 Alpha MOs
 -- Occupied --
-91.9883 -20.5500 -20.5440 -20.5416 -20.5403 -15.6261 -15.6211 -11.3919
-11.3847 -11.3835 -11.3788 -11.3082 -11.3077 -11.3047 -11.3045 -11.2961
-11.2904 -11.2883 -11.2836 -11.2689 -11.2678 -11.2638 -11.2624 -11.2593
-11.2545 -11.2525 -11.2494  -8.9881  -6.6689  -6.6684  -6.6679  -1.4184
 -1.4121  -1.3964  -1.3912  -1.2613  -1.2552  -1.2292  -1.1859  -1.1518
 -1.1136  -1.0861  -1.0462  -0.9949  -0.9875  -0.9834  -0.9546  -0.9509
 -0.8954  -0.8866  -0.8765  -0.8598  -0.7921  -0.7754  -0.7740  -0.7676
 -0.7359  -0.7171  -0.7037  -0.6909  -0.6772  -0.6697  -0.6673  -0.6568
 -0.6466  -0.6396  -0.6381  -0.6319  -0.6307  -0.6266  -0.6227  -0.6046
 -0.5842  -0.5742  -0.5669  -0.5611  -0.5569  -0.5509  -0.5502  -0.5477
 -0.5462  -0.5432  -0.5181  -0.5148  -0.5085  -0.4811  -0.4734  -0.4664
 -0.4556  -0.4498  -0.4425  -0.4343  -0.4129  -0.4073  -0.3526  -0.3496
 -0.3281  -0.2896

          Ground-State Mulliken Net Atomic Charges

     Atom                 Charge (a.u.)
  ----------------------------------------
      1 C                    -0.084266
      2 C                    -0.030874
      3 C                    -0.111191
      4 C                    -0.121532
      5 H                     0.198563
      6 C                     0.009010
      7 C                     0.120578
      8 C                    -0.086006
      9 C                    -0.177466
     10 C                    -0.140740
     11 C                     0.245468
     12 H                     0.191260
     13 C                     0.343255
     14 C                     0.351325
     15 N                    -0.090215
     16 C                     0.356284
     17 C                     0.363554
     18 N                    -0.090371
     19 O                    -0.494385
     20 O                    -0.507448
     21 O                    -0.501956
     22 O                    -0.468568
     23 C                    -0.204709
     24 H                     0.139390
     25 H                     0.108999
     26 H                     0.109145
     27 C                    -0.197445
     28 H                     0.133006
     29 H                     0.111149
     30 H                     0.111569
     31 C                    -0.070641
     32 S                     0.020938
     33 C                    -0.208988
     34 C                    -0.182513
     35 C                    -0.199260
     36 H                     0.189369
     37 H                     0.190879
     38 H                     0.211769
     39 H                     0.137485
     40 H                     0.137530
     41 H                     0.188049
  ----------------------------------------
  Sum of atomic charges =     0.000000

                    Cartesian Multipole Moments
 -----------------------------------------------------------------
    Charge (ESU x 10^10)
                 0.0000
    Dipole Moment (Debye)
         X       1.2993      Y       2.3857      Z       0.1405
       Tot       2.7202
    Quadrupole Moments (Debye-Ang)
        XX    -191.4831     XY      -4.7468     YY    -178.7419
        XZ     -10.1800     YZ      -3.3987     ZZ    -159.9700

 Total job time:  294.70s(wall), 9049.81s(cpu)
        *  Thank you very much for using Q-Chem.  Have a nice day.  *
