 Q-Chem 5.4, Q-Chem, Inc., Pleasanton, CA (2021)
 Q-Chem 5.4.0 for Intel X86 EM64T Linux

User input:
--------------------------------------------------------------
$molecule
0 1
C	0.127184	-6.741404	-0.223244
C	0.779949	-6.155638	-1.354118
C	-0.415271	-5.791452	0.715408
C	0.919437	-4.803786	-1.595259
H	1.218801	-6.821518	-2.114613
C	-0.268806	-4.378638	0.463133
C	0.396744	-3.838032	-0.688925
C	-0.790835	-3.413062	1.368449
C	0.542026	-2.426473	-0.939189
C	-0.652669	-2.059348	1.130363
C	0.000000	-1.478216	0.000000
H	-1.091814	-1.394783	1.891815
C	-1.138124	-6.187987	1.963749
C	-1.506241	-3.798164	2.607351
N	-1.629443	-5.170003	2.817348
C	1.636646	-4.424987	-2.837621
C	1.264474	-2.036627	-2.188982
N	1.756205	-3.049156	-3.042637
O	-1.336258	-7.353131	2.301222
O	-1.967056	-2.986854	3.407386
O	2.092167	-5.248946	-3.628041
O	1.472160	-0.878829	-2.545844
C	-2.336642	-5.563799	4.040164
H	-2.360245	-6.664085	4.078749
H	-3.361968	-5.147101	4.027880
H	-1.813424	-5.148785	4.922811
C	2.452149	-2.587487	-4.247167
H	2.772531	-3.483329	-4.804209
H	3.322697	-1.964972	-3.965991
H	1.774507	-1.962932	-4.859678
C	0.000000	0.000000	0.000000
S	0.137535	0.781156	1.580530
C	0.421895	2.393994	0.904911
C	0.173134	0.982857	-0.985400
C	0.402294	2.283058	-0.493528
H	0.132237	0.750786	-2.059934
H	0.555196	3.150621	-1.152593
H	0.574741	3.261310	1.556025
H	0.851574	-7.361589	0.318588
H	-0.704181	-7.361192	-0.580522
H	0.935042	-1.478831	0.540459
$end

$rem
JOBTYPE		SP
EXCHANGE	HF
CORRELATION	pRIMP2
BASIS		cc-pvtz
METHOD		rimp2
AUX_BASIS	rimp2-cc-pvtz
SOLVENT_METHOD	PCM
PURECART	11111
SYMMETRY	false
MEM_TOTAL	110000
SCF_CONVERGENCE = 6
THRESH=10
GUI = 2
$end

$solvent
dielectric 4.90
$end
--------------------------------------------------------------

             Standard Nuclear Orientation (Angstroms)
    I     Atom           X                Y                Z
 ----------------------------------------------------------------
    1      C       0.1271840000    -6.7414040000    -0.2232440000
    2      C       0.7799490000    -6.1556380000    -1.3541180000
    3      C      -0.4152710000    -5.7914520000     0.7154080000
    4      C       0.9194370000    -4.8037860000    -1.5952590000
    5      H       1.2188010000    -6.8215180000    -2.1146130000
    6      C      -0.2688060000    -4.3786380000     0.4631330000
    7      C       0.3967440000    -3.8380320000    -0.6889250000
    8      C      -0.7908350000    -3.4130620000     1.3684490000
    9      C       0.5420260000    -2.4264730000    -0.9391890000
   10      C      -0.6526690000    -2.0593480000     1.1303630000
   11      C       0.0000000000    -1.4782160000     0.0000000000
   12      H      -1.0918140000    -1.3947830000     1.8918150000
   13      C      -1.1381240000    -6.1879870000     1.9637490000
   14      C      -1.5062410000    -3.7981640000     2.6073510000
   15      N      -1.6294430000    -5.1700030000     2.8173480000
   16      C       1.6366460000    -4.4249870000    -2.8376210000
   17      C       1.2644740000    -2.0366270000    -2.1889820000
   18      N       1.7562050000    -3.0491560000    -3.0426370000
   19      O      -1.3362580000    -7.3531310000     2.3012220000
   20      O      -1.9670560000    -2.9868540000     3.4073860000
   21      O       2.0921670000    -5.2489460000    -3.6280410000
   22      O       1.4721600000    -0.8788290000    -2.5458440000
   23      C      -2.3366420000    -5.5637990000     4.0401640000
   24      H      -2.3602450000    -6.6640850000     4.0787490000
   25      H      -3.3619680000    -5.1471010000     4.0278800000
   26      H      -1.8134240000    -5.1487850000     4.9228110000
   27      C       2.4521490000    -2.5874870000    -4.2471670000
   28      H       2.7725310000    -3.4833290000    -4.8042090000
   29      H       3.3226970000    -1.9649720000    -3.9659910000
   30      H       1.7745070000    -1.9629320000    -4.8596780000
   31      C       0.0000000000     0.0000000000     0.0000000000
   32      S       0.1375350000     0.7811560000     1.5805300000
   33      C       0.4218950000     2.3939940000     0.9049110000
   34      C       0.1731340000     0.9828570000    -0.9854000000
   35      C       0.4022940000     2.2830580000    -0.4935280000
   36      H       0.1322370000     0.7507860000    -2.0599340000
   37      H       0.5551960000     3.1506210000    -1.1525930000
   38      H       0.5747410000     3.2613100000     1.5560250000
   39      H       0.8515740000    -7.3615890000     0.3185880000
   40      H      -0.7041810000    -7.3611920000    -0.5805220000
   41      H       0.9350420000    -1.4788310000     0.5404590000
 ----------------------------------------------------------------

   11   -1571.7386758290      5.84e-07  Convergence criterion met
 Total energy in the final basis set =    -1571.7386758290
        RIMP2         total energy =     -1576.3955500986 a.u.

                    Orbital Energies (a.u.)
 --------------------------------------------------------------

 Alpha MOs
 -- Occupied --
-91.9899 -20.5516 -20.5452 -20.5424 -20.5413 -15.6279 -15.6218 -11.3950
-11.3859 -11.3842 -11.3799 -11.3095 -11.3092 -11.3060 -11.3053 -11.2972
-11.2954 -11.2912 -11.2781 -11.2703 -11.2687 -11.2669 -11.2637 -11.2596
-11.2534 -11.2480 -11.2434  -8.9899  -6.6708  -6.6703  -6.6696  -1.4212
 -1.4128  -1.3985  -1.3920  -1.2633  -1.2560  -1.2314  -1.1875  -1.1510
 -1.1149  -1.0874  -1.0480  -0.9958  -0.9884  -0.9817  -0.9556  -0.9498
 -0.8973  -0.8894  -0.8778  -0.8611  -0.7942  -0.7784  -0.7718  -0.7621
 -0.7413  -0.7164  -0.7024  -0.6900  -0.6786  -0.6744  -0.6678  -0.6579
 -0.6482  -0.6462  -0.6386  -0.6319  -0.6314  -0.6283  -0.6232  -0.6055
 -0.5894  -0.5723  -0.5646  -0.5596  -0.5579  -0.5522  -0.5504  -0.5483
 -0.5481  -0.5433  -0.5190  -0.5159  -0.5106  -0.4853  -0.4753  -0.4643
 -0.4580  -0.4513  -0.4434  -0.4356  -0.4143  -0.4081  -0.3553  -0.3511
 -0.3305  -0.2805

          Ground-State Mulliken Net Atomic Charges

     Atom                 Charge (a.u.)
  ----------------------------------------
      1 C                    -0.084633
      2 C                    -0.029677
      3 C                    -0.108949
      4 C                    -0.127364
      5 H                     0.199110
      6 C                     0.020480
      7 C                     0.123066
      8 C                    -0.057512
      9 C                    -0.171025
     10 C                    -0.191165
     11 C                     0.243945
     12 H                     0.182756
     13 C                     0.343479
     14 C                     0.350676
     15 N                    -0.090111
     16 C                     0.357989
     17 C                     0.369868
     18 N                    -0.088021
     19 O                    -0.493391
     20 O                    -0.505958
     21 O                    -0.501184
     22 O                    -0.476759
     23 C                    -0.204605
     24 H                     0.139493
     25 H                     0.109495
     26 H                     0.109383
     27 C                    -0.197899
     28 H                     0.133994
     29 H                     0.111600
     30 H                     0.111478
     31 C                    -0.071729
     32 S                     0.003298
     33 C                    -0.230564
     34 C                    -0.157286
     35 C                    -0.206073
     36 H                     0.192933
     37 H                     0.190016
     38 H                     0.212864
     39 H                     0.137956
     40 H                     0.138329
     41 H                     0.211696
  ----------------------------------------
  Sum of atomic charges =     0.000000

                    Cartesian Multipole Moments
 -----------------------------------------------------------------
    Charge (ESU x 10^10)
                 0.0000
    Dipole Moment (Debye)
         X       1.5934      Y       1.7452      Z      -1.6305
       Tot       2.8711
    Quadrupole Moments (Debye-Ang)
        XX    -170.3391     XY      -3.5364     YY    -176.7537
        XZ      14.1538     YZ       7.2651     ZZ    -181.0612

 Total job time:  310.14s(wall), 8573.78s(cpu)
        *  Thank you very much for using Q-Chem.  Have a nice day.  *
