 Q-Chem 5.4, Q-Chem, Inc., Pleasanton, CA (2021)
 Q-Chem 5.4.0 for Intel X86 EM64T Linux

User input:
--------------------------------------------------------------
$molecule
0 1
C	0.043160	-6.741404	-0.253280
C	0.269777	-6.155638	-1.539213
C	-0.145543	-5.791452	0.814295
C	0.318377	-4.803786	-1.813519
H	0.422058	-6.821518	-2.403941
C	-0.094194	-4.378638	0.527140
C	0.137191	-3.838032	-0.783072
C	-0.275104	-3.413062	1.556403
C	0.188116	-2.426473	-1.067932
C	-0.226701	-2.059348	1.285420
C	-0.000000	-1.478216	-0.000000
H	-0.378931	-1.394783	2.151147
C	-0.397845	-6.187987	2.234582
C	-0.523637	-3.798164	2.965273
N	-0.567586	-5.170003	3.204744
C	0.567421	-4.424987	-3.226257
C	0.439541	-2.036627	-2.489446
N	0.609650	-3.049156	-3.459801
O	-0.468608	-7.353131	2.619468
O	-0.683034	-2.986854	3.874668
O	0.725131	-5.248946	-4.124806
O	0.512648	-0.878829	-2.895819
C	-0.813908	-5.563799	4.595691
H	-0.822891	-6.664085	4.640022
H	-1.781600	-5.147101	4.934830
H	-0.020360	-5.148785	5.246157
C	0.851649	-2.587487	-4.829716
H	0.962191	-3.483329	-5.462742
H	1.765865	-1.964972	-4.863242
H	0.005383	-1.962932	-5.173521
C	0.000000	0.000000	0.000000
S	0.396411	0.687007	1.580530
C	1.215245	2.105322	0.904911
C	0.498850	0.864369	-0.985400
C	1.158885	2.007781	-0.493528
H	0.381046	0.660280	-2.059934
H	1.599289	2.770727	-1.152593
H	1.655514	2.868056	1.556025
H	0.909181	-7.361589	0.008120
H	-0.860264	-7.361192	-0.304668
H	1.063500	-1.478831	0.188062
$end

$rem
JOBTYPE		SP
EXCHANGE	HF
CORRELATION	pRIMP2
BASIS		cc-pvtz
METHOD		rimp2
AUX_BASIS	rimp2-cc-pvtz
SOLVENT_METHOD	PCM
PURECART	11111
SYMMETRY	false
MEM_TOTAL	110000
SCF_CONVERGENCE = 6
THRESH=10
GUI = 2
$end

$solvent
dielectric 4.90
$end
--------------------------------------------------------------

             Standard Nuclear Orientation (Angstroms)
    I     Atom           X                Y                Z
 ----------------------------------------------------------------
    1      C       0.0431600000    -6.7414040000    -0.2532800000
    2      C       0.2697770000    -6.1556380000    -1.5392130000
    3      C      -0.1455430000    -5.7914520000     0.8142950000
    4      C       0.3183770000    -4.8037860000    -1.8135190000
    5      H       0.4220580000    -6.8215180000    -2.4039410000
    6      C      -0.0941940000    -4.3786380000     0.5271400000
    7      C       0.1371910000    -3.8380320000    -0.7830720000
    8      C      -0.2751040000    -3.4130620000     1.5564030000
    9      C       0.1881160000    -2.4264730000    -1.0679320000
   10      C      -0.2267010000    -2.0593480000     1.2854200000
   11      C       0.0000000000    -1.4782160000     0.0000000000
   12      H      -0.3789310000    -1.3947830000     2.1511470000
   13      C      -0.3978450000    -6.1879870000     2.2345820000
   14      C      -0.5236370000    -3.7981640000     2.9652730000
   15      N      -0.5675860000    -5.1700030000     3.2047440000
   16      C       0.5674210000    -4.4249870000    -3.2262570000
   17      C       0.4395410000    -2.0366270000    -2.4894460000
   18      N       0.6096500000    -3.0491560000    -3.4598010000
   19      O      -0.4686080000    -7.3531310000     2.6194680000
   20      O      -0.6830340000    -2.9868540000     3.8746680000
   21      O       0.7251310000    -5.2489460000    -4.1248060000
   22      O       0.5126480000    -0.8788290000    -2.8958190000
   23      C      -0.8139080000    -5.5637990000     4.5956910000
   24      H      -0.8228910000    -6.6640850000     4.6400220000
   25      H      -1.7816000000    -5.1471010000     4.9348300000
   26      H      -0.0203600000    -5.1487850000     5.2461570000
   27      C       0.8516490000    -2.5874870000    -4.8297160000
   28      H       0.9621910000    -3.4833290000    -5.4627420000
   29      H       1.7658650000    -1.9649720000    -4.8632420000
   30      H       0.0053830000    -1.9629320000    -5.1735210000
   31      C       0.0000000000     0.0000000000     0.0000000000
   32      S       0.3964110000     0.6870070000     1.5805300000
   33      C       1.2152450000     2.1053220000     0.9049110000
   34      C       0.4988500000     0.8643690000    -0.9854000000
   35      C       1.1588850000     2.0077810000    -0.4935280000
   36      H       0.3810460000     0.6602800000    -2.0599340000
   37      H       1.5992890000     2.7707270000    -1.1525930000
   38      H       1.6555140000     2.8680560000     1.5560250000
   39      H       0.9091810000    -7.3615890000     0.0081200000
   40      H      -0.8602640000    -7.3611920000    -0.3046680000
   41      H       1.0635000000    -1.4788310000     0.1880620000
 ----------------------------------------------------------------

   11   -1571.7119870008      5.71e-07  Convergence criterion met
 Total energy in the final basis set =    -1571.7119870008
        RIMP2         total energy =     -1576.3751330296 a.u.

                    Orbital Energies (a.u.)
 --------------------------------------------------------------

 Alpha MOs
 -- Occupied --
-91.9867 -20.5532 -20.5460 -20.5421 -20.5410 -15.6297 -15.6215 -11.3989
-11.3867 -11.3839 -11.3795 -11.3095 -11.3079 -11.3059 -11.3050 -11.2975
-11.2905 -11.2898 -11.2796 -11.2701 -11.2690 -11.2663 -11.2647 -11.2594
-11.2534 -11.2458 -11.2356  -8.9873  -6.6681  -6.6676  -6.6669  -1.4253
 -1.4125  -1.4008  -1.3917  -1.2654  -1.2559  -1.2320  -1.1888  -1.1497
 -1.1148  -1.0865  -1.0485  -0.9961  -0.9888  -0.9827  -0.9559  -0.9484
 -0.8979  -0.8901  -0.8783  -0.8614  -0.7937  -0.7811  -0.7733  -0.7596
 -0.7399  -0.7246  -0.7023  -0.6892  -0.6818  -0.6748  -0.6683  -0.6582
 -0.6493  -0.6477  -0.6379  -0.6322  -0.6315  -0.6301  -0.6242  -0.6051
 -0.5925  -0.5705  -0.5637  -0.5623  -0.5574  -0.5524  -0.5520  -0.5487
 -0.5480  -0.5424  -0.5176  -0.5140  -0.5083  -0.4840  -0.4733  -0.4601
 -0.4571  -0.4476  -0.4420  -0.4362  -0.4166  -0.4081  -0.3580  -0.3478
 -0.3319  -0.2767

          Ground-State Mulliken Net Atomic Charges

     Atom                 Charge (a.u.)
  ----------------------------------------
      1 C                    -0.083804
      2 C                    -0.031712
      3 C                    -0.107442
      4 C                    -0.120546
      5 H                     0.198895
      6 C                     0.022496
      7 C                     0.122309
      8 C                    -0.057075
      9 C                    -0.206628
     10 C                    -0.154490
     11 C                     0.182634
     12 H                     0.183236
     13 C                     0.342490
     14 C                     0.345307
     15 N                    -0.090097
     16 C                     0.358075
     17 C                     0.386425
     18 N                    -0.087483
     19 O                    -0.493808
     20 O                    -0.506396
     21 O                    -0.500027
     22 O                    -0.476079
     23 C                    -0.204869
     24 H                     0.139500
     25 H                     0.109476
     26 H                     0.109377
     27 C                    -0.199058
     28 H                     0.134688
     29 H                     0.111689
     30 H                     0.112351
     31 C                     0.012615
     32 S                    -0.008916
     33 C                    -0.232782
     34 C                    -0.229878
     35 C                    -0.204938
     36 H                     0.224657
     37 H                     0.191513
     38 H                     0.213953
     39 H                     0.137995
     40 H                     0.138413
     41 H                     0.217934
  ----------------------------------------
  Sum of atomic charges =     0.000000

                    Cartesian Multipole Moments
 -----------------------------------------------------------------
    Charge (ESU x 10^10)
                 0.0000
    Dipole Moment (Debye)
         X       2.0620      Y       1.4633      Z      -2.3393
       Tot       3.4446
    Quadrupole Moments (Debye-Ang)
        XX    -160.7385     XY       1.7269     YY    -179.1306
        XZ       5.4971     YZ       9.1848     ZZ    -187.4735

 Total job time:  305.11s(wall), 9121.58s(cpu)
        *  Thank you very much for using Q-Chem.  Have a nice day.  *
