 Q-Chem 5.4, Q-Chem, Inc., Pleasanton, CA (2021)
 Q-Chem 5.4.0 for Intel X86 EM64T Linux

User input:
--------------------------------------------------------------
$molecule
0 1
C	0.195868	-6.741404	-0.166281
C	1.196048	-6.155638	-1.005696
C	-0.634911	-5.791452	0.530233
C	1.409599	-4.803786	-1.184587
H	1.868538	-6.821518	-1.570232
C	-0.410996	-4.378638	0.343266
C	0.608444	-3.838032	-0.511683
C	-1.211179	-3.413062	1.015440
C	0.830559	-2.426473	-0.697165
C	-0.999915	-2.059348	0.838968
C	-0.000000	-1.478216	-0.000000
H	-1.673009	-1.394783	1.404302
C	-1.741129	-6.187987	1.456059
C	-2.307170	-3.798164	1.934944
N	-2.494766	-5.170003	2.090139
C	2.508468	-4.424987	-2.106725
C	1.936893	-2.036627	-1.624494
N	2.690936	-3.049156	-2.258486
O	-2.042736	-7.353131	1.705414
O	-3.013823	-2.986854	2.529122
O	3.206857	-5.248946	-2.693680
O	2.254108	-0.878829	-1.888802
C	-3.577543	-5.563799	2.997334
H	-3.612920	-6.664085	3.025519
H	-4.536833	-5.147101	2.635109
H	-3.387762	-5.148785	4.005702
C	3.756883	-2.587487	-3.152347
H	4.248464	-3.483329	-3.566218
H	4.478763	-1.964972	-2.590383
H	3.329599	-1.962932	-3.959687
C	0.000000	0.000000	0.000000
S	0.335026	0.718942	1.580530
C	1.027130	2.203226	0.904911
C	0.421617	0.904557	-0.985400
C	0.979485	2.101144	-0.493528
H	0.322049	0.690978	-2.059934
H	1.351718	2.899571	-1.152593
H	1.399246	3.001430	1.556025
H	0.691254	-7.361589	0.590631
H	-0.463164	-7.361192	-0.786357
H	0.693804	-1.478831	0.827669
$end

$rem
JOBTYPE		SP
EXCHANGE	HF
CORRELATION	pRIMP2
BASIS		cc-pvtz
METHOD		rimp2
AUX_BASIS	rimp2-cc-pvtz
SOLVENT_METHOD	PCM
PURECART	11111
SYMMETRY	false
MEM_TOTAL	110000
SCF_CONVERGENCE = 6
THRESH=10
GUI = 2
$end

$solvent
dielectric 4.90
$end
--------------------------------------------------------------

             Standard Nuclear Orientation (Angstroms)
    I     Atom           X                Y                Z
 ----------------------------------------------------------------
    1      C       0.1958680000    -6.7414040000    -0.1662810000
    2      C       1.1960480000    -6.1556380000    -1.0056960000
    3      C      -0.6349110000    -5.7914520000     0.5302330000
    4      C       1.4095990000    -4.8037860000    -1.1845870000
    5      H       1.8685380000    -6.8215180000    -1.5702320000
    6      C      -0.4109960000    -4.3786380000     0.3432660000
    7      C       0.6084440000    -3.8380320000    -0.5116830000
    8      C      -1.2111790000    -3.4130620000     1.0154400000
    9      C       0.8305590000    -2.4264730000    -0.6971650000
   10      C      -0.9999150000    -2.0593480000     0.8389680000
   11      C       0.0000000000    -1.4782160000     0.0000000000
   12      H      -1.6730090000    -1.3947830000     1.4043020000
   13      C      -1.7411290000    -6.1879870000     1.4560590000
   14      C      -2.3071700000    -3.7981640000     1.9349440000
   15      N      -2.4947660000    -5.1700030000     2.0901390000
   16      C       2.5084680000    -4.4249870000    -2.1067250000
   17      C       1.9368930000    -2.0366270000    -1.6244940000
   18      N       2.6909360000    -3.0491560000    -2.2584860000
   19      O      -2.0427360000    -7.3531310000     1.7054140000
   20      O      -3.0138230000    -2.9868540000     2.5291220000
   21      O       3.2068570000    -5.2489460000    -2.6936800000
   22      O       2.2541080000    -0.8788290000    -1.8888020000
   23      C      -3.5775430000    -5.5637990000     2.9973340000
   24      H      -3.6129200000    -6.6640850000     3.0255190000
   25      H      -4.5368330000    -5.1471010000     2.6351090000
   26      H      -3.3877620000    -5.1487850000     4.0057020000
   27      C       3.7568830000    -2.5874870000    -3.1523470000
   28      H       4.2484640000    -3.4833290000    -3.5662180000
   29      H       4.4787630000    -1.9649720000    -2.5903830000
   30      H       3.3295990000    -1.9629320000    -3.9596870000
   31      C       0.0000000000     0.0000000000     0.0000000000
   32      S       0.3350260000     0.7189420000     1.5805300000
   33      C       1.0271300000     2.2032260000     0.9049110000
   34      C       0.4216170000     0.9045570000    -0.9854000000
   35      C       0.9794850000     2.1011440000    -0.4935280000
   36      H       0.3220490000     0.6909780000    -2.0599340000
   37      H       1.3517180000     2.8995710000    -1.1525930000
   38      H       1.3992460000     3.0014300000     1.5560250000
   39      H       0.6912540000    -7.3615890000     0.5906310000
   40      H      -0.4631640000    -7.3611920000    -0.7863570000
   41      H       0.6938040000    -1.4788310000     0.8276690000
 ----------------------------------------------------------------

   11   -1571.7293919348      5.72e-07  Convergence criterion met
 Total energy in the final basis set =    -1571.7293919348
        RIMP2         total energy =     -1576.3878326463 a.u.

                    Orbital Energies (a.u.)
 --------------------------------------------------------------

 Alpha MOs
 -- Occupied --
-91.9892 -20.5503 -20.5444 -20.5410 -20.5400 -15.6269 -15.6207 -11.3932
-11.3851 -11.3829 -11.3785 -11.3078 -11.3066 -11.3049 -11.3042 -11.2961
-11.2868 -11.2859 -11.2853 -11.2681 -11.2678 -11.2641 -11.2632 -11.2590
-11.2537 -11.2523 -11.2492  -8.9894  -6.6703  -6.6697  -6.6691  -1.4196
 -1.4116  -1.3973  -1.3908  -1.2621  -1.2549  -1.2298  -1.1872  -1.1515
 -1.1133  -1.0859  -1.0462  -0.9957  -0.9876  -0.9838  -0.9548  -0.9498
 -0.8955  -0.8865  -0.8766  -0.8598  -0.7922  -0.7758  -0.7708  -0.7669
 -0.7403  -0.7157  -0.7027  -0.6900  -0.6767  -0.6719  -0.6667  -0.6569
 -0.6468  -0.6441  -0.6375  -0.6311  -0.6304  -0.6268  -0.6224  -0.6045
 -0.5858  -0.5727  -0.5665  -0.5603  -0.5565  -0.5513  -0.5494  -0.5475
 -0.5472  -0.5434  -0.5223  -0.5140  -0.5070  -0.4815  -0.4743  -0.4670
 -0.4567  -0.4510  -0.4424  -0.4342  -0.4133  -0.4071  -0.3525  -0.3521
 -0.3289  -0.2823

          Ground-State Mulliken Net Atomic Charges

     Atom                 Charge (a.u.)
  ----------------------------------------
      1 C                    -0.085369
      2 C                    -0.029933
      3 C                    -0.114157
      4 C                    -0.125439
      5 H                     0.198449
      6 C                     0.013406
      7 C                     0.126359
      8 C                    -0.065062
      9 C                    -0.158399
     10 C                    -0.176313
     11 C                     0.223652
     12 H                     0.191760
     13 C                     0.344153
     14 C                     0.346538
     15 N                    -0.089368
     16 C                     0.357407
     17 C                     0.369346
     18 N                    -0.088640
     19 O                    -0.495303
     20 O                    -0.507264
     21 O                    -0.501952
     22 O                    -0.473660
     23 C                    -0.204862
     24 H                     0.139320
     25 H                     0.109049
     26 H                     0.109041
     27 C                    -0.197686
     28 H                     0.133655
     29 H                     0.111547
     30 H                     0.110744
     31 C                    -0.080005
     32 S                     0.005683
     33 C                    -0.208967
     34 C                    -0.148845
     35 C                    -0.198937
     36 H                     0.182999
     37 H                     0.190117
     38 H                     0.213247
     39 H                     0.137147
     40 H                     0.137464
     41 H                     0.199077
  ----------------------------------------
  Sum of atomic charges =     0.000000

                    Cartesian Multipole Moments
 -----------------------------------------------------------------
    Charge (ESU x 10^10)
                 0.0000
    Dipole Moment (Debye)
         X       2.3508      Y       2.4412      Z      -1.3319
       Tot       3.6413
    Quadrupole Moments (Debye-Ang)
        XX    -180.0809     XY      -3.1731     YY    -180.5714
        XZ      16.6438     YZ       5.3165     ZZ    -170.1173

 Total job time:  290.41s(wall), 8850.49s(cpu)
        *  Thank you very much for using Q-Chem.  Have a nice day.  *
