 Q-Chem 5.4, Q-Chem, Inc., Pleasanton, CA (2021)
 Q-Chem 5.4.0 for Intel X86 EM64T Linux

User input:
--------------------------------------------------------------
$molecule
0 1
C	0.197767	-6.741404	0.164018
C	1.198109	-6.155638	1.003240
C	-0.632428	-5.791452	-0.533192
C	1.411364	-4.803786	1.182482
H	1.870845	-6.821518	1.567483
C	-0.409419	-4.378638	-0.345145
C	0.609565	-3.838032	0.510347
C	-1.210332	-3.413062	-1.016449
C	0.830799	-2.426473	0.696879
C	-0.999856	-2.059348	-0.839039
C	-0.000000	-1.478216	-0.000000
H	-1.673483	-1.394783	-1.403737
C	-1.736282	-6.187987	-1.461835
C	-2.306183	-3.798164	-1.936119
N	-2.491597	-5.170003	-2.093916
C	2.510310	-4.424987	2.104529
C	1.936153	-2.036627	1.625377
N	2.691451	-3.049156	2.257873
O	-2.034222	-7.353131	-1.715561
O	-3.014044	-2.986854	-2.528858
O	3.209622	-5.248946	2.690385
O	2.251529	-0.878829	1.891876
C	-3.573032	-5.563799	-3.002711
H	-3.606932	-6.664085	-3.032655
H	-3.382888	-5.147101	-4.010326
H	-4.533125	-5.148785	-2.640711
C	3.756832	-2.587487	3.152408
H	4.249778	-3.483329	3.564653
H	3.328759	-1.964972	3.960905
H	4.477709	-1.962932	2.591422
C	0.000000	0.000000	0.000000
S	0.271091	0.745405	1.580530
C	0.831198	2.284363	0.904911
C	0.341175	0.937861	-0.985400
C	0.792631	2.178516	-0.493528
H	0.260601	0.716417	-2.059934
H	1.093860	3.006347	-1.152593
H	1.132330	3.111961	1.556025
H	-0.461623	-7.361589	0.783314
H	0.693983	-7.361192	-0.592677
H	-0.694617	-1.478831	0.826987
$end

$rem
JOBTYPE		SP
EXCHANGE	HF
CORRELATION	pRIMP2
BASIS		cc-pvtz
METHOD		rimp2
AUX_BASIS	rimp2-cc-pvtz
SOLVENT_METHOD	PCM
PURECART	11111
SYMMETRY	false
MEM_TOTAL	110000
SCF_CONVERGENCE = 6
THRESH=10
GUI = 2
$end

$solvent
dielectric 4.90
$end
--------------------------------------------------------------

             Standard Nuclear Orientation (Angstroms)
    I     Atom           X                Y                Z
 ----------------------------------------------------------------
    1      C       0.1977670000    -6.7414040000     0.1640180000
    2      C       1.1981090000    -6.1556380000     1.0032400000
    3      C      -0.6324280000    -5.7914520000    -0.5331920000
    4      C       1.4113640000    -4.8037860000     1.1824820000
    5      H       1.8708450000    -6.8215180000     1.5674830000
    6      C      -0.4094190000    -4.3786380000    -0.3451450000
    7      C       0.6095650000    -3.8380320000     0.5103470000
    8      C      -1.2103320000    -3.4130620000    -1.0164490000
    9      C       0.8307990000    -2.4264730000     0.6968790000
   10      C      -0.9998560000    -2.0593480000    -0.8390390000
   11      C       0.0000000000    -1.4782160000     0.0000000000
   12      H      -1.6734830000    -1.3947830000    -1.4037370000
   13      C      -1.7362820000    -6.1879870000    -1.4618350000
   14      C      -2.3061830000    -3.7981640000    -1.9361190000
   15      N      -2.4915970000    -5.1700030000    -2.0939160000
   16      C       2.5103100000    -4.4249870000     2.1045290000
   17      C       1.9361530000    -2.0366270000     1.6253770000
   18      N       2.6914510000    -3.0491560000     2.2578730000
   19      O      -2.0342220000    -7.3531310000    -1.7155610000
   20      O      -3.0140440000    -2.9868540000    -2.5288580000
   21      O       3.2096220000    -5.2489460000     2.6903850000
   22      O       2.2515290000    -0.8788290000     1.8918760000
   23      C      -3.5730320000    -5.5637990000    -3.0027110000
   24      H      -3.6069320000    -6.6640850000    -3.0326550000
   25      H      -3.3828880000    -5.1471010000    -4.0103260000
   26      H      -4.5331250000    -5.1487850000    -2.6407110000
   27      C       3.7568320000    -2.5874870000     3.1524080000
   28      H       4.2497780000    -3.4833290000     3.5646530000
   29      H       3.3287590000    -1.9649720000     3.9609050000
   30      H       4.4777090000    -1.9629320000     2.5914220000
   31      C       0.0000000000     0.0000000000     0.0000000000
   32      S       0.2710910000     0.7454050000     1.5805300000
   33      C       0.8311980000     2.2843630000     0.9049110000
   34      C       0.3411750000     0.9378610000    -0.9854000000
   35      C       0.7926310000     2.1785160000    -0.4935280000
   36      H       0.2606010000     0.7164170000    -2.0599340000
   37      H       1.0938600000     3.0063470000    -1.1525930000
   38      H       1.1323300000     3.1119610000     1.5560250000
   39      H      -0.4616230000    -7.3615890000     0.7833140000
   40      H       0.6939830000    -7.3611920000    -0.5926770000
   41      H      -0.6946170000    -1.4788310000     0.8269870000
 ----------------------------------------------------------------

   11   -1571.7190037966      5.81e-07  Convergence criterion met
 Total energy in the final basis set =    -1571.7190037966
        RIMP2         total energy =     -1576.3830617920 a.u.

                    Orbital Energies (a.u.)
 --------------------------------------------------------------

 Alpha MOs
 -- Occupied --
-91.9813 -20.5484 -20.5442 -20.5415 -20.5403 -15.6265 -15.6211 -11.3925
-11.3849 -11.3834 -11.3788 -11.3089 -11.3076 -11.3054 -11.3046 -11.2966
-11.2879 -11.2864 -11.2806 -11.2687 -11.2681 -11.2639 -11.2628 -11.2594
-11.2526 -11.2520 -11.2444  -8.9815  -6.6621  -6.6615  -6.6613  -1.4202
 -1.4121  -1.3976  -1.3912  -1.2621  -1.2553  -1.2292  -1.1848  -1.1497
 -1.1138  -1.0856  -1.0466  -0.9937  -0.9878  -0.9801  -0.9548  -0.9498
 -0.8953  -0.8872  -0.8771  -0.8604  -0.7909  -0.7761  -0.7733  -0.7653
 -0.7329  -0.7180  -0.7024  -0.6903  -0.6795  -0.6697  -0.6675  -0.6571
 -0.6473  -0.6402  -0.6388  -0.6320  -0.6308  -0.6273  -0.6234  -0.6044
 -0.5851  -0.5725  -0.5653  -0.5618  -0.5580  -0.5514  -0.5506  -0.5480
 -0.5478  -0.5434  -0.5165  -0.5132  -0.5092  -0.4825  -0.4737  -0.4604
 -0.4550  -0.4481  -0.4423  -0.4342  -0.4125  -0.4074  -0.3528  -0.3346
 -0.3266  -0.2854

          Ground-State Mulliken Net Atomic Charges

     Atom                 Charge (a.u.)
  ----------------------------------------
      1 C                    -0.084462
      2 C                    -0.030091
      3 C                    -0.111938
      4 C                    -0.121758
      5 H                     0.198793
      6 C                     0.011765
      7 C                     0.119716
      8 C                    -0.090692
      9 C                    -0.199854
     10 C                    -0.146994
     11 C                     0.238196
     12 H                     0.193522
     13 C                     0.343276
     14 C                     0.350010
     15 N                    -0.089823
     16 C                     0.355989
     17 C                     0.388908
     18 N                    -0.090629
     19 O                    -0.494841
     20 O                    -0.507700
     21 O                    -0.502038
     22 O                    -0.466928
     23 C                    -0.204706
     24 H                     0.139448
     25 H                     0.108992
     26 H                     0.109016
     27 C                    -0.197183
     28 H                     0.133404
     29 H                     0.111016
     30 H                     0.111528
     31 C                    -0.081455
     32 S                     0.042132
     33 C                    -0.204053
     34 C                    -0.174673
     35 C                    -0.217541
     36 H                     0.190314
     37 H                     0.188328
     38 H                     0.209735
     39 H                     0.137574
     40 H                     0.137714
     41 H                     0.197982
  ----------------------------------------
  Sum of atomic charges =     0.000000

                    Cartesian Multipole Moments
 -----------------------------------------------------------------
    Charge (ESU x 10^10)
                 0.0000
    Dipole Moment (Debye)
         X       1.3598      Y       1.9764      Z       0.7571
       Tot       2.5156
    Quadrupole Moments (Debye-Ang)
        XX    -180.7537     XY      -2.2148     YY    -180.1844
        XZ     -15.1781     YZ      -5.9351     ZZ    -169.3565

 Total job time:  315.56s(wall), 10211.06s(cpu)
        *  Thank you very much for using Q-Chem.  Have a nice day.  *
