 Q-Chem 5.4, Q-Chem, Inc., Pleasanton, CA (2021)
 Q-Chem 5.4.0 for Intel X86 EM64T Linux

User input:
--------------------------------------------------------------
$molecule
0 1
C	0.164018	-6.741404	-0.197767
C	1.003240	-6.155638	-1.198109
C	-0.533192	-5.791452	0.632428
C	1.182482	-4.803786	-1.411364
H	1.567483	-6.821518	-1.870845
C	-0.345145	-4.378638	0.409419
C	0.510347	-3.838032	-0.609565
C	-1.016449	-3.413062	1.210332
C	0.696879	-2.426473	-0.830799
C	-0.839039	-2.059348	0.999856
C	-0.000000	-1.478216	-0.000000
H	-1.403737	-1.394783	1.673483
C	-1.461835	-6.187987	1.736282
C	-1.936119	-3.798164	2.306183
N	-2.093916	-5.170003	2.491597
C	2.104529	-4.424987	-2.510310
C	1.625377	-2.036627	-1.936153
N	2.257873	-3.049156	-2.691451
O	-1.715561	-7.353131	2.034222
O	-2.528858	-2.986854	3.014044
O	2.690385	-5.248946	-3.209622
O	1.891876	-0.878829	-2.251529
C	-3.002711	-5.563799	3.573032
H	-3.032655	-6.664085	3.606932
H	-4.010326	-5.147101	3.382888
H	-2.640711	-5.148785	4.533125
C	3.152408	-2.587487	-3.756832
H	3.564653	-3.483329	-4.249778
H	3.960905	-1.964972	-3.328759
H	2.591422	-1.962932	-4.477709
C	0.000000	0.000000	0.000000
S	0.607475	0.509994	1.580530
C	1.862020	1.562717	0.904911
C	0.764397	0.641624	-0.985400
C	1.775697	1.490335	-0.493528
H	0.583895	0.490135	-2.059934
H	2.450484	2.056643	-1.152593
H	2.536607	2.128872	1.556025
H	0.783314	-7.361589	0.461623
H	-0.592677	-7.361192	-0.693983
H	0.826987	-1.478831	0.694617
$end

$rem
JOBTYPE		SP
EXCHANGE	HF
CORRELATION	pRIMP2
BASIS		cc-pvtz
METHOD		rimp2
AUX_BASIS	rimp2-cc-pvtz
SOLVENT_METHOD	PCM
PURECART	11111
SYMMETRY	false
MEM_TOTAL	110000
SCF_CONVERGENCE = 6
THRESH=10
GUI = 2
$end

$solvent
dielectric 4.90
$end
--------------------------------------------------------------

             Standard Nuclear Orientation (Angstroms)
    I     Atom           X                Y                Z
 ----------------------------------------------------------------
    1      C       0.1640180000    -6.7414040000    -0.1977670000
    2      C       1.0032400000    -6.1556380000    -1.1981090000
    3      C      -0.5331920000    -5.7914520000     0.6324280000
    4      C       1.1824820000    -4.8037860000    -1.4113640000
    5      H       1.5674830000    -6.8215180000    -1.8708450000
    6      C      -0.3451450000    -4.3786380000     0.4094190000
    7      C       0.5103470000    -3.8380320000    -0.6095650000
    8      C      -1.0164490000    -3.4130620000     1.2103320000
    9      C       0.6968790000    -2.4264730000    -0.8307990000
   10      C      -0.8390390000    -2.0593480000     0.9998560000
   11      C       0.0000000000    -1.4782160000     0.0000000000
   12      H      -1.4037370000    -1.3947830000     1.6734830000
   13      C      -1.4618350000    -6.1879870000     1.7362820000
   14      C      -1.9361190000    -3.7981640000     2.3061830000
   15      N      -2.0939160000    -5.1700030000     2.4915970000
   16      C       2.1045290000    -4.4249870000    -2.5103100000
   17      C       1.6253770000    -2.0366270000    -1.9361530000
   18      N       2.2578730000    -3.0491560000    -2.6914510000
   19      O      -1.7155610000    -7.3531310000     2.0342220000
   20      O      -2.5288580000    -2.9868540000     3.0140440000
   21      O       2.6903850000    -5.2489460000    -3.2096220000
   22      O       1.8918760000    -0.8788290000    -2.2515290000
   23      C      -3.0027110000    -5.5637990000     3.5730320000
   24      H      -3.0326550000    -6.6640850000     3.6069320000
   25      H      -4.0103260000    -5.1471010000     3.3828880000
   26      H      -2.6407110000    -5.1487850000     4.5331250000
   27      C       3.1524080000    -2.5874870000    -3.7568320000
   28      H       3.5646530000    -3.4833290000    -4.2497780000
   29      H       3.9609050000    -1.9649720000    -3.3287590000
   30      H       2.5914220000    -1.9629320000    -4.4777090000
   31      C       0.0000000000     0.0000000000     0.0000000000
   32      S       0.6074750000     0.5099940000     1.5805300000
   33      C       1.8620200000     1.5627170000     0.9049110000
   34      C       0.7643970000     0.6416240000    -0.9854000000
   35      C       1.7756970000     1.4903350000    -0.4935280000
   36      H       0.5838950000     0.4901350000    -2.0599340000
   37      H       2.4504840000     2.0566430000    -1.1525930000
   38      H       2.5366070000     2.1288720000     1.5560250000
   39      H       0.7833140000    -7.3615890000     0.4616230000
   40      H      -0.5926770000    -7.3611920000    -0.6939830000
   41      H       0.8269870000    -1.4788310000     0.6946170000
 ----------------------------------------------------------------

   11   -1571.6714981489      6.07e-07  Convergence criterion met
 Total energy in the final basis set =    -1571.6714981489
        RIMP2         total energy =     -1576.3406500763 a.u.

                    Orbital Energies (a.u.)
 --------------------------------------------------------------

 Alpha MOs
 -- Occupied --
-91.9800 -20.5528 -20.5453 -20.5392 -20.5385 -15.6294 -15.6194 -11.3979
-11.3858 -11.3812 -11.3768 -11.3060 -11.3045 -11.3028 -11.3021 -11.2979
-11.2955 -11.2795 -11.2674 -11.2654 -11.2648 -11.2641 -11.2629 -11.2618
-11.2582 -11.2512 -11.2477  -8.9817  -6.6625  -6.6617  -6.6612  -1.4262
 -1.4102  -1.4006  -1.3893  -1.2651  -1.2537  -1.2301  -1.1899  -1.1506
 -1.1119  -1.0836  -1.0453  -0.9964  -0.9891  -0.9874  -0.9547  -0.9481
 -0.8957  -0.8841  -0.8766  -0.8590  -0.7904  -0.7779  -0.7713  -0.7678
 -0.7389  -0.7261  -0.7028  -0.6869  -0.6779  -0.6733  -0.6661  -0.6568
 -0.6468  -0.6459  -0.6361  -0.6309  -0.6296  -0.6284  -0.6220  -0.6029
 -0.5870  -0.5754  -0.5678  -0.5608  -0.5561  -0.5518  -0.5510  -0.5475
 -0.5462  -0.5425  -0.5180  -0.5116  -0.5039  -0.4818  -0.4715  -0.4638
 -0.4537  -0.4471  -0.4410  -0.4333  -0.4155  -0.4059  -0.3524  -0.3448
 -0.3295  -0.2758

          Ground-State Mulliken Net Atomic Charges

     Atom                 Charge (a.u.)
  ----------------------------------------
      1 C                    -0.086016
      2 C                    -0.031210
      3 C                    -0.118036
      4 C                    -0.121703
      5 H                     0.197960
      6 C                     0.015379
      7 C                     0.126209
      8 C                    -0.085165
      9 C                    -0.187032
     10 C                    -0.142829
     11 C                     0.175872
     12 H                     0.186570
     13 C                     0.342629
     14 C                     0.346362
     15 N                    -0.089263
     16 C                     0.357455
     17 C                     0.400332
     18 N                    -0.085621
     19 O                    -0.497798
     20 O                    -0.508696
     21 O                    -0.501117
     22 O                    -0.482712
     23 C                    -0.205433
     24 H                     0.139061
     25 H                     0.108860
     26 H                     0.108705
     27 C                    -0.199313
     28 H                     0.134892
     29 H                     0.111632
     30 H                     0.111653
     31 C                    -0.131141
     32 S                    -0.017539
     33 C                    -0.161785
     34 C                    -0.055640
     35 C                    -0.227069
     36 H                     0.196616
     37 H                     0.189398
     38 H                     0.215578
     39 H                     0.136185
     40 H                     0.136572
     41 H                     0.197196
  ----------------------------------------
  Sum of atomic charges =     0.000000

                    Cartesian Multipole Moments
 -----------------------------------------------------------------
    Charge (ESU x 10^10)
                 0.0000
    Dipole Moment (Debye)
         X       4.0012      Y       2.4972      Z      -2.2894
       Tot       5.2428
    Quadrupole Moments (Debye-Ang)
        XX    -168.7289     XY      -1.1191     YY    -187.3840
        XZ      16.3936     YZ       7.3302     ZZ    -175.3675

 Total job time:  319.81s(wall), 9804.56s(cpu)
        *  Thank you very much for using Q-Chem.  Have a nice day.  *
