 Q-Chem 5.4, Q-Chem, Inc., Pleasanton, CA (2021)
 Q-Chem 5.4.0 for Intel X86 EM64T Linux

User input:
--------------------------------------------------------------
$molecule
0 1
C	-6.452381	1.969596	-0.002838
C	-6.327556	0.543932	-0.003583
C	-5.199266	2.681941	-0.002518
C	-5.141988	-0.162849	-0.003264
H	-7.244699	-0.066958	-0.004382
C	-3.960422	1.942750	-0.001720
C	-3.886374	0.508537	-0.002007
C	-2.705373	2.613048	-0.000397
C	-2.647949	-0.228038	-0.001227
C	-1.516962	1.908779	0.000307
C	-1.396353	0.485099	-0.000267
H	-0.600741	2.521022	0.001330
C	-5.100455	4.174706	-0.003627
C	-2.599668	4.090821	0.000219
N	-3.815638	4.770993	-0.001591
C	-5.254927	-1.642236	-0.004052
C	-2.753425	-1.719604	-0.001196
N	-4.033172	-2.317922	-0.002902
O	-6.072653	4.926722	-0.006473
O	-1.530307	4.696705	0.001818
O	-6.332635	-2.233603	-0.005425
O	-1.795243	-2.489582	0.000214
C	-3.724063	6.234584	-0.001922
H	-4.748576	6.638373	-0.003244
H	-3.165379	6.572477	-0.895668
H	-3.167351	6.572916	0.892876
C	-4.053589	-3.783511	-0.003152
H	-5.110700	-4.096543	-0.004732
H	-3.528796	-4.169364	0.891359
H	-3.526193	-4.169069	-0.896256
C	0.000000	0.000000	0.000000
S	1.267920	1.232710	0.000820
C	2.593224	0.057066	0.000714
C	0.619348	-1.258334	-0.000535
C	2.027890	-1.226959	-0.000122
H	0.044126	-2.196030	-0.001151
H	2.643755	-2.138617	-0.000401
H	3.638806	0.383112	0.001151
H	-7.003409	2.273819	0.895366
H	-7.002654	2.273792	-0.901513
H	-1.397141	0.485299	1.079733
$end

$rem
JOBTYPE		SP
EXCHANGE	HF
CORRELATION	pRIMP2
BASIS		cc-pvtz
METHOD		rimp2
AUX_BASIS	rimp2-cc-pvtz
SOLVENT_METHOD	PCM
PURECART	11111
SYMMETRY	false
MEM_TOTAL	110000
SCF_CONVERGENCE = 6
THRESH=10
GUI = 2
$end

$solvent
dielectric 4.90
$end
--------------------------------------------------------------

             Standard Nuclear Orientation (Angstroms)
    I     Atom           X                Y                Z
 ----------------------------------------------------------------
    1      C      -6.4523810000     1.9695960000    -0.0028380000
    2      C      -6.3275560000     0.5439320000    -0.0035830000
    3      C      -5.1992660000     2.6819410000    -0.0025180000
    4      C      -5.1419880000    -0.1628490000    -0.0032640000
    5      H      -7.2446990000    -0.0669580000    -0.0043820000
    6      C      -3.9604220000     1.9427500000    -0.0017200000
    7      C      -3.8863740000     0.5085370000    -0.0020070000
    8      C      -2.7053730000     2.6130480000    -0.0003970000
    9      C      -2.6479490000    -0.2280380000    -0.0012270000
   10      C      -1.5169620000     1.9087790000     0.0003070000
   11      C      -1.3963530000     0.4850990000    -0.0002670000
   12      H      -0.6007410000     2.5210220000     0.0013300000
   13      C      -5.1004550000     4.1747060000    -0.0036270000
   14      C      -2.5996680000     4.0908210000     0.0002190000
   15      N      -3.8156380000     4.7709930000    -0.0015910000
   16      C      -5.2549270000    -1.6422360000    -0.0040520000
   17      C      -2.7534250000    -1.7196040000    -0.0011960000
   18      N      -4.0331720000    -2.3179220000    -0.0029020000
   19      O      -6.0726530000     4.9267220000    -0.0064730000
   20      O      -1.5303070000     4.6967050000     0.0018180000
   21      O      -6.3326350000    -2.2336030000    -0.0054250000
   22      O      -1.7952430000    -2.4895820000     0.0002140000
   23      C      -3.7240630000     6.2345840000    -0.0019220000
   24      H      -4.7485760000     6.6383730000    -0.0032440000
   25      H      -3.1653790000     6.5724770000    -0.8956680000
   26      H      -3.1673510000     6.5729160000     0.8928760000
   27      C      -4.0535890000    -3.7835110000    -0.0031520000
   28      H      -5.1107000000    -4.0965430000    -0.0047320000
   29      H      -3.5287960000    -4.1693640000     0.8913590000
   30      H      -3.5261930000    -4.1690690000    -0.8962560000
   31      C       0.0000000000     0.0000000000     0.0000000000
   32      S       1.2679200000     1.2327100000     0.0008200000
   33      C       2.5932240000     0.0570660000     0.0007140000
   34      C       0.6193480000    -1.2583340000    -0.0005350000
   35      C       2.0278900000    -1.2269590000    -0.0001220000
   36      H       0.0441260000    -2.1960300000    -0.0011510000
   37      H       2.6437550000    -2.1386170000    -0.0004010000
   38      H       3.6388060000     0.3831120000     0.0011510000
   39      H      -7.0034090000     2.2738190000     0.8953660000
   40      H      -7.0026540000     2.2737920000    -0.9015130000
   41      H      -1.3971410000     0.4852990000     1.0797330000
 ----------------------------------------------------------------

   11   -1571.7333615320      5.95e-07  Convergence criterion met
 Total energy in the final basis set =    -1571.7333615320
        RIMP2         total energy =     -1576.3919034342 a.u.

                    Orbital Energies (a.u.)
 --------------------------------------------------------------

 Alpha MOs
 -- Occupied --
-91.9894 -20.5542 -20.5461 -20.5428 -20.5418 -15.6296 -15.6222 -11.3985
-11.3869 -11.3846 -11.3804 -11.3107 -11.3104 -11.3072 -11.3059 -11.2983
-11.2982 -11.2930 -11.2737 -11.2711 -11.2696 -11.2680 -11.2645 -11.2598
-11.2540 -11.2459 -11.2346  -8.9895  -6.6703  -6.6699  -6.6691  -1.4244
 -1.4132  -1.4005  -1.3924  -1.2652  -1.2565  -1.2324  -1.1878  -1.1502
 -1.1160  -1.0880  -1.0494  -0.9957  -0.9891  -0.9813  -0.9562  -0.9496
 -0.8988  -0.8917  -0.8788  -0.8621  -0.7956  -0.7815  -0.7734  -0.7586
 -0.7402  -0.7211  -0.7026  -0.6899  -0.6828  -0.6749  -0.6689  -0.6586
 -0.6497  -0.6475  -0.6390  -0.6327  -0.6320  -0.6299  -0.6246  -0.6057
 -0.5933  -0.5714  -0.5637  -0.5606  -0.5576  -0.5527  -0.5520  -0.5495
 -0.5486  -0.5430  -0.5167  -0.5152  -0.5129  -0.4867  -0.4746  -0.4594
 -0.4583  -0.4499  -0.4434  -0.4370  -0.4164  -0.4087  -0.3579  -0.3495
 -0.3319  -0.2782

          Ground-State Mulliken Net Atomic Charges

     Atom                 Charge (a.u.)
  ----------------------------------------
      1 C                    -0.083744
      2 C                    -0.031438
      3 C                    -0.103283
      4 C                    -0.121986
      5 H                     0.199343
      6 C                     0.023887
      7 C                     0.113621
      8 C                    -0.037722
      9 C                    -0.195623
     10 C                    -0.169346
     11 C                     0.182082
     12 H                     0.182603
     13 C                     0.341846
     14 C                     0.350393
     15 N                    -0.090049
     16 C                     0.358652
     17 C                     0.390996
     18 N                    -0.087027
     19 O                    -0.493077
     20 O                    -0.506039
     21 O                    -0.500221
     22 O                    -0.481566
     23 C                    -0.204792
     24 H                     0.139494
     25 H                     0.109834
     26 H                     0.109576
     27 C                    -0.198598
     28 H                     0.134543
     29 H                     0.111770
     30 H                     0.112395
     31 C                    -0.042723
     32 S                    -0.015177
     33 C                    -0.234663
     34 C                    -0.150986
     35 C                    -0.243773
     36 H                     0.229545
     37 H                     0.189139
     38 H                     0.215728
     39 H                     0.138339
     40 H                     0.138727
     41 H                     0.219320
  ----------------------------------------
  Sum of atomic charges =     0.000000

                    Cartesian Multipole Moments
 -----------------------------------------------------------------
    Charge (ESU x 10^10)
                -0.0000
    Dipole Moment (Debye)
         X       0.4771      Y      -2.5855      Z       0.8988
       Tot       2.7785
    Quadrupole Moments (Debye-Ang)
        XX    -171.3416     XY       3.3056     YY    -192.8368
        XZ      -1.3484     YZ       0.3665     ZZ    -162.5041

 Total job time:  315.86s(wall), 8954.49s(cpu)
        *  Thank you very much for using Q-Chem.  Have a nice day.  *
