 Q-Chem 5.4, Q-Chem, Inc., Pleasanton, CA (2021)
 Q-Chem 5.4.0 for Intel X86 EM64T Linux

User input:
--------------------------------------------------------------
$molecule
0 1
C	0.166281	-6.741404	0.195868
C	1.005696	-6.155638	1.196048
C	-0.530233	-5.791452	-0.634911
C	1.184587	-4.803786	1.409599
H	1.570232	-6.821518	1.868538
C	-0.343266	-4.378638	-0.410996
C	0.511683	-3.838032	0.608444
C	-1.015440	-3.413062	-1.211179
C	0.697165	-2.426473	0.830559
C	-0.838968	-2.059348	-0.999915
C	-0.000000	-1.478216	-0.000000
H	-1.404302	-1.394783	-1.673009
C	-1.456059	-6.187987	-1.741129
C	-1.934944	-3.798164	-2.307170
N	-2.090139	-5.170003	-2.494766
C	2.106725	-4.424987	2.508468
C	1.624494	-2.036627	1.936893
N	2.258486	-3.049156	2.690936
O	-1.705414	-7.353131	-2.042736
O	-2.529122	-2.986854	-3.013823
O	2.693680	-5.248946	3.206857
O	1.888802	-0.878829	2.254108
C	-2.997334	-5.563799	-3.577543
H	-3.025519	-6.664085	-3.612920
H	-2.635109	-5.147101	-4.536833
H	-4.005702	-5.148785	-3.387762
C	3.152347	-2.587487	3.756883
H	3.566218	-3.483329	4.248464
H	2.590383	-1.964972	4.478763
H	3.959687	-1.962932	3.329599
C	0.000000	0.000000	0.000000
S	0.271091	0.745405	1.580530
C	0.831198	2.284363	0.904911
C	0.341175	0.937861	-0.985400
C	0.792631	2.178516	-0.493528
H	0.260601	0.716417	-2.059934
H	1.093860	3.006347	-1.152593
H	1.132330	3.111961	1.556025
H	-0.590631	-7.361589	0.691254
H	0.786357	-7.361192	-0.463164
H	-0.827669	-1.478831	0.693804
$end

$rem
JOBTYPE		SP
EXCHANGE	HF
CORRELATION	pRIMP2
BASIS		cc-pvtz
METHOD		rimp2
AUX_BASIS	rimp2-cc-pvtz
SOLVENT_METHOD	PCM
PURECART	11111
SYMMETRY	false
MEM_TOTAL	110000
SCF_CONVERGENCE = 6
THRESH=10
GUI = 2
$end

$solvent
dielectric 4.90
$end
--------------------------------------------------------------

             Standard Nuclear Orientation (Angstroms)
    I     Atom           X                Y                Z
 ----------------------------------------------------------------
    1      C       0.1662810000    -6.7414040000     0.1958680000
    2      C       1.0056960000    -6.1556380000     1.1960480000
    3      C      -0.5302330000    -5.7914520000    -0.6349110000
    4      C       1.1845870000    -4.8037860000     1.4095990000
    5      H       1.5702320000    -6.8215180000     1.8685380000
    6      C      -0.3432660000    -4.3786380000    -0.4109960000
    7      C       0.5116830000    -3.8380320000     0.6084440000
    8      C      -1.0154400000    -3.4130620000    -1.2111790000
    9      C       0.6971650000    -2.4264730000     0.8305590000
   10      C      -0.8389680000    -2.0593480000    -0.9999150000
   11      C       0.0000000000    -1.4782160000     0.0000000000
   12      H      -1.4043020000    -1.3947830000    -1.6730090000
   13      C      -1.4560590000    -6.1879870000    -1.7411290000
   14      C      -1.9349440000    -3.7981640000    -2.3071700000
   15      N      -2.0901390000    -5.1700030000    -2.4947660000
   16      C       2.1067250000    -4.4249870000     2.5084680000
   17      C       1.6244940000    -2.0366270000     1.9368930000
   18      N       2.2584860000    -3.0491560000     2.6909360000
   19      O      -1.7054140000    -7.3531310000    -2.0427360000
   20      O      -2.5291220000    -2.9868540000    -3.0138230000
   21      O       2.6936800000    -5.2489460000     3.2068570000
   22      O       1.8888020000    -0.8788290000     2.2541080000
   23      C      -2.9973340000    -5.5637990000    -3.5775430000
   24      H      -3.0255190000    -6.6640850000    -3.6129200000
   25      H      -2.6351090000    -5.1471010000    -4.5368330000
   26      H      -4.0057020000    -5.1487850000    -3.3877620000
   27      C       3.1523470000    -2.5874870000     3.7568830000
   28      H       3.5662180000    -3.4833290000     4.2484640000
   29      H       2.5903830000    -1.9649720000     4.4787630000
   30      H       3.9596870000    -1.9629320000     3.3295990000
   31      C       0.0000000000     0.0000000000     0.0000000000
   32      S       0.2710910000     0.7454050000     1.5805300000
   33      C       0.8311980000     2.2843630000     0.9049110000
   34      C       0.3411750000     0.9378610000    -0.9854000000
   35      C       0.7926310000     2.1785160000    -0.4935280000
   36      H       0.2606010000     0.7164170000    -2.0599340000
   37      H       1.0938600000     3.0063470000    -1.1525930000
   38      H       1.1323300000     3.1119610000     1.5560250000
   39      H      -0.5906310000    -7.3615890000     0.6912540000
   40      H       0.7863570000    -7.3611920000    -0.4631640000
   41      H      -0.8276690000    -1.4788310000     0.6938040000
 ----------------------------------------------------------------

   11   -1571.7036171684      5.95e-07  Convergence criterion met
 Total energy in the final basis set =    -1571.7036171684
        RIMP2         total energy =     -1576.3722733556 a.u.

                    Orbital Energies (a.u.)
 --------------------------------------------------------------

 Alpha MOs
 -- Occupied --
-91.9786 -20.5491 -20.5449 -20.5416 -20.5405 -15.6277 -15.6213 -11.3948
-11.3855 -11.3835 -11.3790 -11.3099 -11.3080 -11.3063 -11.3049 -11.2974
-11.2878 -11.2851 -11.2763 -11.2691 -11.2687 -11.2643 -11.2635 -11.2595
-11.2531 -11.2487 -11.2400  -8.9790  -6.6593  -6.6588  -6.6584  -1.4234
 -1.4122  -1.3995  -1.3914  -1.2637  -1.2555  -1.2295  -1.1844  -1.1481
 -1.1142  -1.0856  -1.0472  -0.9934  -0.9882  -0.9781  -0.9552  -0.9490
 -0.8960  -0.8882  -0.8778  -0.8611  -0.7906  -0.7776  -0.7735  -0.7631
 -0.7315  -0.7195  -0.7016  -0.6901  -0.6827  -0.6703  -0.6678  -0.6576
 -0.6486  -0.6417  -0.6385  -0.6323  -0.6312  -0.6284  -0.6239  -0.6046
 -0.5863  -0.5717  -0.5644  -0.5620  -0.5588  -0.5521  -0.5513  -0.5485
 -0.5479  -0.5440  -0.5160  -0.5142  -0.5102  -0.4837  -0.4752  -0.4606
 -0.4550  -0.4449  -0.4402  -0.4333  -0.4121  -0.4075  -0.3534  -0.3295
 -0.3204  -0.2826

          Ground-State Mulliken Net Atomic Charges

     Atom                 Charge (a.u.)
  ----------------------------------------
      1 C                    -0.084521
      2 C                    -0.029019
      3 C                    -0.111733
      4 C                    -0.122552
      5 H                     0.199095
      6 C                     0.015447
      7 C                     0.120308
      8 C                    -0.096368
      9 C                    -0.213055
     10 C                    -0.146249
     11 C                     0.238035
     12 H                     0.194258
     13 C                     0.343176
     14 C                     0.349747
     15 N                    -0.089798
     16 C                     0.356538
     17 C                     0.402959
     18 N                    -0.090659
     19 O                    -0.494819
     20 O                    -0.507710
     21 O                    -0.501470
     22 O                    -0.462858
     23 C                    -0.204711
     24 H                     0.139475
     25 H                     0.109040
     26 H                     0.109097
     27 C                    -0.197648
     28 H                     0.133869
     29 H                     0.111454
     30 H                     0.111852
     31 C                    -0.090028
     32 S                     0.058503
     33 C                    -0.210136
     34 C                    -0.170045
     35 C                    -0.232571
     36 H                     0.188631
     37 H                     0.185882
     38 H                     0.208291
     39 H                     0.137866
     40 H                     0.138062
     41 H                     0.204365
  ----------------------------------------
  Sum of atomic charges =     0.000000

                    Cartesian Multipole Moments
 -----------------------------------------------------------------
    Charge (ESU x 10^10)
                 0.0000
    Dipole Moment (Debye)
         X       1.1999      Y       1.4831      Z       1.1928
       Tot       2.2499
    Quadrupole Moments (Debye-Ang)
        XX    -174.7622     XY      -1.3709     YY    -180.1889
        XZ     -14.7387     YZ      -7.0975     ZZ    -174.4962

 Total job time:  289.12s(wall), 8898.80s(cpu)
        *  Thank you very much for using Q-Chem.  Have a nice day.  *
