 Q-Chem 5.4, Q-Chem, Inc., Pleasanton, CA (2021)
 Q-Chem 5.4.0 for Intel X86 EM64T Linux

User input:
--------------------------------------------------------------
$molecule
0 1
C	-0.195868	-6.741404	0.166281
C	-1.196048	-6.155638	1.005696
C	0.634911	-5.791452	-0.530233
C	-1.409599	-4.803786	1.184587
H	-1.868538	-6.821518	1.570232
C	0.410996	-4.378638	-0.343266
C	-0.608444	-3.838032	0.511683
C	1.211179	-3.413062	-1.015440
C	-0.830559	-2.426473	0.697165
C	0.999915	-2.059348	-0.838968
C	0.000000	-1.478216	0.000000
H	1.673009	-1.394783	-1.404302
C	1.741129	-6.187987	-1.456059
C	2.307170	-3.798164	-1.934944
N	2.494766	-5.170003	-2.090139
C	-2.508468	-4.424987	2.106725
C	-1.936893	-2.036627	1.624494
N	-2.690936	-3.049156	2.258486
O	2.042736	-7.353131	-1.705414
O	3.013823	-2.986854	-2.529122
O	-3.206857	-5.248946	2.693680
O	-2.254108	-0.878829	1.888802
C	3.577543	-5.563799	-2.997334
H	3.612920	-6.664085	-3.025519
H	4.536833	-5.147101	-2.635109
H	3.387762	-5.148785	-4.005702
C	-3.756883	-2.587487	3.152347
H	-4.248464	-3.483329	3.566218
H	-4.478763	-1.964972	2.590383
H	-3.329599	-1.962932	3.959687
C	0.000000	0.000000	0.000000
S	0.137535	0.781156	1.580530
C	0.421895	2.393994	0.904911
C	0.173134	0.982857	-0.985400
C	0.402294	2.283058	-0.493528
H	0.132237	0.750786	-2.059934
H	0.555196	3.150621	-1.152593
H	0.574741	3.261310	1.556025
H	-0.691254	-7.361589	-0.590631
H	0.463164	-7.361192	0.786357
H	-0.693804	-1.478831	-0.827669
$end

$rem
JOBTYPE		SP
EXCHANGE	HF
CORRELATION	pRIMP2
BASIS		cc-pvtz
METHOD		rimp2
AUX_BASIS	rimp2-cc-pvtz
SOLVENT_METHOD	PCM
PURECART	11111
SYMMETRY	false
MEM_TOTAL	110000
SCF_CONVERGENCE = 6
THRESH=10
GUI = 2
$end

$solvent
dielectric 4.90
$end
--------------------------------------------------------------

             Standard Nuclear Orientation (Angstroms)
    I     Atom           X                Y                Z
 ----------------------------------------------------------------
    1      C      -0.1958680000    -6.7414040000     0.1662810000
    2      C      -1.1960480000    -6.1556380000     1.0056960000
    3      C       0.6349110000    -5.7914520000    -0.5302330000
    4      C      -1.4095990000    -4.8037860000     1.1845870000
    5      H      -1.8685380000    -6.8215180000     1.5702320000
    6      C       0.4109960000    -4.3786380000    -0.3432660000
    7      C      -0.6084440000    -3.8380320000     0.5116830000
    8      C       1.2111790000    -3.4130620000    -1.0154400000
    9      C      -0.8305590000    -2.4264730000     0.6971650000
   10      C       0.9999150000    -2.0593480000    -0.8389680000
   11      C       0.0000000000    -1.4782160000     0.0000000000
   12      H       1.6730090000    -1.3947830000    -1.4043020000
   13      C       1.7411290000    -6.1879870000    -1.4560590000
   14      C       2.3071700000    -3.7981640000    -1.9349440000
   15      N       2.4947660000    -5.1700030000    -2.0901390000
   16      C      -2.5084680000    -4.4249870000     2.1067250000
   17      C      -1.9368930000    -2.0366270000     1.6244940000
   18      N      -2.6909360000    -3.0491560000     2.2584860000
   19      O       2.0427360000    -7.3531310000    -1.7054140000
   20      O       3.0138230000    -2.9868540000    -2.5291220000
   21      O      -3.2068570000    -5.2489460000     2.6936800000
   22      O      -2.2541080000    -0.8788290000     1.8888020000
   23      C       3.5775430000    -5.5637990000    -2.9973340000
   24      H       3.6129200000    -6.6640850000    -3.0255190000
   25      H       4.5368330000    -5.1471010000    -2.6351090000
   26      H       3.3877620000    -5.1487850000    -4.0057020000
   27      C      -3.7568830000    -2.5874870000     3.1523470000
   28      H      -4.2484640000    -3.4833290000     3.5662180000
   29      H      -4.4787630000    -1.9649720000     2.5903830000
   30      H      -3.3295990000    -1.9629320000     3.9596870000
   31      C       0.0000000000     0.0000000000     0.0000000000
   32      S       0.1375350000     0.7811560000     1.5805300000
   33      C       0.4218950000     2.3939940000     0.9049110000
   34      C       0.1731340000     0.9828570000    -0.9854000000
   35      C       0.4022940000     2.2830580000    -0.4935280000
   36      H       0.1322370000     0.7507860000    -2.0599340000
   37      H       0.5551960000     3.1506210000    -1.1525930000
   38      H       0.5747410000     3.2613100000     1.5560250000
   39      H      -0.6912540000    -7.3615890000    -0.5906310000
   40      H       0.4631640000    -7.3611920000     0.7863570000
   41      H      -0.6938040000    -1.4788310000    -0.8276690000
 ----------------------------------------------------------------

   11   -1571.7418831971      5.67e-07  Convergence criterion met
 Total energy in the final basis set =    -1571.7418831971
        RIMP2         total energy =     -1576.3993203954 a.u.

                    Orbital Energies (a.u.)
 --------------------------------------------------------------

 Alpha MOs
 -- Occupied --
-91.9826 -20.5517 -20.5447 -20.5419 -20.5409 -15.6271 -15.6216 -11.3937
-11.3854 -11.3838 -11.3795 -11.3101 -11.3096 -11.3064 -11.3052 -11.2977
-11.2973 -11.2910 -11.2768 -11.2695 -11.2687 -11.2650 -11.2629 -11.2597
-11.2547 -11.2531 -11.2475  -8.9824  -6.6632  -6.6626  -6.6621  -1.4202
 -1.4125  -1.3977  -1.3917  -1.2625  -1.2558  -1.2304  -1.1861  -1.1511
 -1.1147  -1.0868  -1.0474  -0.9948  -0.9881  -0.9813  -0.9553  -0.9505
 -0.8967  -0.8885  -0.8774  -0.8606  -0.7937  -0.7773  -0.7717  -0.7612
 -0.7390  -0.7172  -0.7034  -0.6917  -0.6809  -0.6736  -0.6670  -0.6575
 -0.6475  -0.6457  -0.6366  -0.6330  -0.6312  -0.6285  -0.6213  -0.6050
 -0.5852  -0.5748  -0.5656  -0.5619  -0.5582  -0.5517  -0.5509  -0.5482
 -0.5474  -0.5440  -0.5199  -0.5139  -0.5103  -0.4828  -0.4745  -0.4595
 -0.4569  -0.4501  -0.4429  -0.4349  -0.4132  -0.4078  -0.3537  -0.3474
 -0.3287  -0.2844

          Ground-State Mulliken Net Atomic Charges

     Atom                 Charge (a.u.)
  ----------------------------------------
      1 C                    -0.084455
      2 C                    -0.029535
      3 C                    -0.111118
      4 C                    -0.126146
      5 H                     0.199388
      6 C                     0.025735
      7 C                     0.119843
      8 C                    -0.090778
      9 C                    -0.167746
     10 C                    -0.147682
     11 C                     0.212860
     12 H                     0.196548
     13 C                     0.342748
     14 C                     0.347863
     15 N                    -0.089876
     16 C                     0.357453
     17 C                     0.349297
     18 N                    -0.090691
     19 O                    -0.494415
     20 O                    -0.507743
     21 O                    -0.501496
     22 O                    -0.468260
     23 C                    -0.204724
     24 H                     0.139561
     25 H                     0.109361
     26 H                     0.108894
     27 C                    -0.197028
     28 H                     0.133259
     29 H                     0.111588
     30 H                     0.111992
     31 C                    -0.025074
     32 S                     0.041954
     33 C                    -0.220696
     34 C                    -0.213443
     35 C                    -0.209362
     36 H                     0.189865
     37 H                     0.189173
     38 H                     0.208564
     39 H                     0.137752
     40 H                     0.138301
     41 H                     0.208273
  ----------------------------------------
  Sum of atomic charges =     0.000000

                    Cartesian Multipole Moments
 -----------------------------------------------------------------
    Charge (ESU x 10^10)
                 0.0000
    Dipole Moment (Debye)
         X      -1.1652      Y       1.7752      Z      -0.8483
       Tot       2.2866
    Quadrupole Moments (Debye-Ang)
        XX    -181.7003     XY       9.4673     YY    -177.9892
        XZ      16.1753     YZ      -4.0999     ZZ    -169.9017

 Total job time:  318.61s(wall), 9302.25s(cpu)
        *  Thank you very much for using Q-Chem.  Have a nice day.  *
