 Q-Chem 5.4, Q-Chem, Inc., Pleasanton, CA (2021)
 Q-Chem 5.4.0 for Intel X86 EM64T Linux

User input:
--------------------------------------------------------------
$molecule
0 1
C	-0.089263	-6.741404	-0.240927
C	-0.535973	-6.155638	-1.467886
C	0.281103	-5.791452	0.777972
C	-0.631036	-4.803786	-1.729742
H	-0.836458	-6.821518	-2.292903
C	0.181995	-4.378638	0.503614
C	-0.272725	-3.838032	-0.746756
C	0.539954	-3.413062	1.485437
C	-0.371053	-2.426473	-1.018915
C	0.446381	-2.059348	1.226557
C	0.000000	-1.478216	0.000000
H	0.747410	-1.394783	2.052413
C	0.772747	-6.187987	2.134128
C	1.029154	-3.798164	2.829820
N	1.110828	-5.170003	3.059182
C	-1.121728	-4.424987	-3.077731
C	-0.864069	-2.036627	-2.375694
N	-1.201928	-3.049156	-3.301101
O	0.903908	-7.353131	2.502830
O	1.345809	-2.986854	3.697078
O	-1.434422	-5.248946	-3.934752
O	-1.003943	-0.878829	-2.764177
C	1.592981	-5.563799	4.386939
H	1.607367	-6.664085	4.429822
H	0.924504	-5.147101	5.164489
H	2.605446	-5.148785	4.553486
C	-1.677308	-2.587487	-4.608481
H	-1.898089	-3.483329	-5.211969
H	-0.902337	-1.964972	-5.094624
H	-2.582098	-1.962932	-4.483092
C	0.000000	0.000000	0.000000
S	0.509686	0.607733	1.580530
C	1.562368	1.862312	0.904911
C	0.641367	0.764613	-0.985400
C	1.489926	1.776040	-0.493528
H	0.489914	0.584081	-2.059934
H	2.056124	2.450920	-1.152593
H	2.128395	2.537007	1.556025
H	0.791434	-7.361589	-0.447559
H	-0.897345	-7.361192	0.166282
H	1.015049	-1.478831	-0.368883
$end

$rem
JOBTYPE		SP
EXCHANGE	HF
CORRELATION	pRIMP2
BASIS		cc-pvtz
METHOD		rimp2
AUX_BASIS	rimp2-cc-pvtz
SOLVENT_METHOD	PCM
PURECART	11111
SYMMETRY	false
MEM_TOTAL	110000
SCF_CONVERGENCE = 6
THRESH=10
GUI = 2
$end

$solvent
dielectric 4.90
$end
--------------------------------------------------------------

             Standard Nuclear Orientation (Angstroms)
    I     Atom           X                Y                Z
 ----------------------------------------------------------------
    1      C      -0.0892630000    -6.7414040000    -0.2409270000
    2      C      -0.5359730000    -6.1556380000    -1.4678860000
    3      C       0.2811030000    -5.7914520000     0.7779720000
    4      C      -0.6310360000    -4.8037860000    -1.7297420000
    5      H      -0.8364580000    -6.8215180000    -2.2929030000
    6      C       0.1819950000    -4.3786380000     0.5036140000
    7      C      -0.2727250000    -3.8380320000    -0.7467560000
    8      C       0.5399540000    -3.4130620000     1.4854370000
    9      C      -0.3710530000    -2.4264730000    -1.0189150000
   10      C       0.4463810000    -2.0593480000     1.2265570000
   11      C       0.0000000000    -1.4782160000     0.0000000000
   12      H       0.7474100000    -1.3947830000     2.0524130000
   13      C       0.7727470000    -6.1879870000     2.1341280000
   14      C       1.0291540000    -3.7981640000     2.8298200000
   15      N       1.1108280000    -5.1700030000     3.0591820000
   16      C      -1.1217280000    -4.4249870000    -3.0777310000
   17      C      -0.8640690000    -2.0366270000    -2.3756940000
   18      N      -1.2019280000    -3.0491560000    -3.3011010000
   19      O       0.9039080000    -7.3531310000     2.5028300000
   20      O       1.3458090000    -2.9868540000     3.6970780000
   21      O      -1.4344220000    -5.2489460000    -3.9347520000
   22      O      -1.0039430000    -0.8788290000    -2.7641770000
   23      C       1.5929810000    -5.5637990000     4.3869390000
   24      H       1.6073670000    -6.6640850000     4.4298220000
   25      H       0.9245040000    -5.1471010000     5.1644890000
   26      H       2.6054460000    -5.1487850000     4.5534860000
   27      C      -1.6773080000    -2.5874870000    -4.6084810000
   28      H      -1.8980890000    -3.4833290000    -5.2119690000
   29      H      -0.9023370000    -1.9649720000    -5.0946240000
   30      H      -2.5820980000    -1.9629320000    -4.4830920000
   31      C       0.0000000000     0.0000000000     0.0000000000
   32      S       0.5096860000     0.6077330000     1.5805300000
   33      C       1.5623680000     1.8623120000     0.9049110000
   34      C       0.6413670000     0.7646130000    -0.9854000000
   35      C       1.4899260000     1.7760400000    -0.4935280000
   36      H       0.4899140000     0.5840810000    -2.0599340000
   37      H       2.0561240000     2.4509200000    -1.1525930000
   38      H       2.1283950000     2.5370070000     1.5560250000
   39      H       0.7914340000    -7.3615890000    -0.4475590000
   40      H      -0.8973450000    -7.3611920000     0.1662820000
   41      H       1.0150490000    -1.4788310000    -0.3688830000
 ----------------------------------------------------------------

   11   -1571.6998535671      5.74e-07  Convergence criterion met
 Total energy in the final basis set =    -1571.6998535671
        RIMP2         total energy =     -1576.3675611587 a.u.

                    Orbital Energies (a.u.)
 --------------------------------------------------------------

 Alpha MOs
 -- Occupied --
-91.9903 -20.5539 -20.5449 -20.5400 -20.5393 -15.6280 -15.6202 -11.3954
-11.3855 -11.3819 -11.3777 -11.3078 -11.3038 -11.3030 -11.3016 -11.2963
-11.2913 -11.2893 -11.2870 -11.2677 -11.2665 -11.2637 -11.2622 -11.2588
-11.2519 -11.2515 -11.2503  -8.9913  -6.6720  -6.6713  -6.6709  -1.4217
 -1.4109  -1.3986  -1.3901  -1.2632  -1.2544  -1.2323  -1.1914  -1.1510
 -1.1130  -1.0854  -1.0470  -0.9972  -0.9906  -0.9874  -0.9548  -0.9479
 -0.8966  -0.8883  -0.8762  -0.8588  -0.7962  -0.7811  -0.7707  -0.7603
 -0.7385  -0.7178  -0.7003  -0.6924  -0.6842  -0.6718  -0.6673  -0.6569
 -0.6482  -0.6470  -0.6364  -0.6309  -0.6302  -0.6278  -0.6225  -0.6043
 -0.5924  -0.5738  -0.5692  -0.5613  -0.5583  -0.5519  -0.5497  -0.5491
 -0.5469  -0.5427  -0.5189  -0.5140  -0.5025  -0.4842  -0.4754  -0.4614
 -0.4561  -0.4512  -0.4417  -0.4341  -0.4144  -0.4069  -0.3560  -0.3488
 -0.3338  -0.2764

          Ground-State Mulliken Net Atomic Charges

     Atom                 Charge (a.u.)
  ----------------------------------------
      1 C                    -0.084343
      2 C                    -0.032288
      3 C                    -0.110791
      4 C                    -0.120315
      5 H                     0.198560
      6 C                     0.018716
      7 C                     0.119448
      8 C                    -0.031974
      9 C                    -0.209856
     10 C                    -0.191270
     11 C                     0.180049
     12 H                     0.191764
     13 C                     0.339678
     14 C                     0.345358
     15 N                    -0.089188
     16 C                     0.357262
     17 C                     0.369391
     18 N                    -0.090078
     19 O                    -0.496977
     20 O                    -0.510436
     21 O                    -0.501247
     22 O                    -0.482138
     23 C                    -0.205368
     24 H                     0.139260
     25 H                     0.109162
     26 H                     0.108712
     27 C                    -0.198325
     28 H                     0.133917
     29 H                     0.110874
     30 H                     0.112345
     31 C                    -0.014611
     32 S                     0.012071
     33 C                    -0.190194
     34 C                    -0.151625
     35 C                    -0.240097
     36 H                     0.208491
     37 H                     0.192091
     38 H                     0.215568
     39 H                     0.136818
     40 H                     0.137098
     41 H                     0.214491
  ----------------------------------------
  Sum of atomic charges =     0.000000

                    Cartesian Multipole Moments
 -----------------------------------------------------------------
    Charge (ESU x 10^10)
                 0.0000
    Dipole Moment (Debye)
         X       1.9081      Y       2.2088      Z      -2.2428
       Tot       3.6810
    Quadrupole Moments (Debye-Ang)
        XX    -161.7705     XY       7.5414     YY    -184.3564
        XZ     -10.3587     YZ      10.1255     ZZ    -185.3247

 Total job time:  300.93s(wall), 8892.61s(cpu)
        *  Thank you very much for using Q-Chem.  Have a nice day.  *
