 Q-Chem 5.4, Q-Chem, Inc., Pleasanton, CA (2021)
 Q-Chem 5.4.0 for Intel X86 EM64T Linux

User input:
--------------------------------------------------------------
$molecule
0 1
C	-0.127184	-6.741404	0.223244
C	-0.779949	-6.155638	1.354118
C	0.415271	-5.791452	-0.715408
C	-0.919437	-4.803786	1.595259
H	-1.218801	-6.821518	2.114613
C	0.268806	-4.378638	-0.463133
C	-0.396744	-3.838032	0.688925
C	0.790835	-3.413062	-1.368449
C	-0.542026	-2.426473	0.939189
C	0.652669	-2.059348	-1.130363
C	0.000000	-1.478216	0.000000
H	1.091814	-1.394783	-1.891815
C	1.138124	-6.187987	-1.963749
C	1.506241	-3.798164	-2.607351
N	1.629443	-5.170003	-2.817348
C	-1.636646	-4.424987	2.837621
C	-1.264474	-2.036627	2.188982
N	-1.756205	-3.049156	3.042637
O	1.336258	-7.353131	-2.301222
O	1.967056	-2.986854	-3.407386
O	-2.092167	-5.248946	3.628041
O	-1.472160	-0.878829	2.545844
C	2.336642	-5.563799	-4.040164
H	2.360245	-6.664085	-4.078749
H	3.361968	-5.147101	-4.027880
H	1.813424	-5.148785	-4.922811
C	-2.452149	-2.587487	4.247167
H	-2.772531	-3.483329	4.804209
H	-3.322697	-1.964972	3.965991
H	-1.774507	-1.962932	4.859678
C	0.000000	0.000000	0.000000
S	0.396411	0.687007	1.580530
C	1.215245	2.105322	0.904911
C	0.498850	0.864369	-0.985400
C	1.158885	2.007781	-0.493528
H	0.381046	0.660280	-2.059934
H	1.599289	2.770727	-1.152593
H	1.655514	2.868056	1.556025
H	-0.851574	-7.361589	-0.318588
H	0.704181	-7.361192	0.580522
H	-0.935042	-1.478831	-0.540459
$end

$rem
JOBTYPE		SP
EXCHANGE	HF
CORRELATION	pRIMP2
BASIS		cc-pvtz
METHOD		rimp2
AUX_BASIS	rimp2-cc-pvtz
SOLVENT_METHOD	PCM
PURECART	11111
SYMMETRY	false
MEM_TOTAL	110000
SCF_CONVERGENCE = 6
THRESH=10
GUI = 2
$end

$solvent
dielectric 4.90
$end
--------------------------------------------------------------

             Standard Nuclear Orientation (Angstroms)
    I     Atom           X                Y                Z
 ----------------------------------------------------------------
    1      C      -0.1271840000    -6.7414040000     0.2232440000
    2      C      -0.7799490000    -6.1556380000     1.3541180000
    3      C       0.4152710000    -5.7914520000    -0.7154080000
    4      C      -0.9194370000    -4.8037860000     1.5952590000
    5      H      -1.2188010000    -6.8215180000     2.1146130000
    6      C       0.2688060000    -4.3786380000    -0.4631330000
    7      C      -0.3967440000    -3.8380320000     0.6889250000
    8      C       0.7908350000    -3.4130620000    -1.3684490000
    9      C      -0.5420260000    -2.4264730000     0.9391890000
   10      C       0.6526690000    -2.0593480000    -1.1303630000
   11      C       0.0000000000    -1.4782160000     0.0000000000
   12      H       1.0918140000    -1.3947830000    -1.8918150000
   13      C       1.1381240000    -6.1879870000    -1.9637490000
   14      C       1.5062410000    -3.7981640000    -2.6073510000
   15      N       1.6294430000    -5.1700030000    -2.8173480000
   16      C      -1.6366460000    -4.4249870000     2.8376210000
   17      C      -1.2644740000    -2.0366270000     2.1889820000
   18      N      -1.7562050000    -3.0491560000     3.0426370000
   19      O       1.3362580000    -7.3531310000    -2.3012220000
   20      O       1.9670560000    -2.9868540000    -3.4073860000
   21      O      -2.0921670000    -5.2489460000     3.6280410000
   22      O      -1.4721600000    -0.8788290000     2.5458440000
   23      C       2.3366420000    -5.5637990000    -4.0401640000
   24      H       2.3602450000    -6.6640850000    -4.0787490000
   25      H       3.3619680000    -5.1471010000    -4.0278800000
   26      H       1.8134240000    -5.1487850000    -4.9228110000
   27      C      -2.4521490000    -2.5874870000     4.2471670000
   28      H      -2.7725310000    -3.4833290000     4.8042090000
   29      H      -3.3226970000    -1.9649720000     3.9659910000
   30      H      -1.7745070000    -1.9629320000     4.8596780000
   31      C       0.0000000000     0.0000000000     0.0000000000
   32      S       0.3964110000     0.6870070000     1.5805300000
   33      C       1.2152450000     2.1053220000     0.9049110000
   34      C       0.4988500000     0.8643690000    -0.9854000000
   35      C       1.1588850000     2.0077810000    -0.4935280000
   36      H       0.3810460000     0.6602800000    -2.0599340000
   37      H       1.5992890000     2.7707270000    -1.1525930000
   38      H       1.6555140000     2.8680560000     1.5560250000
   39      H      -0.8515740000    -7.3615890000    -0.3185880000
   40      H       0.7041810000    -7.3611920000     0.5805220000
   41      H      -0.9350420000    -1.4788310000    -0.5404590000
 ----------------------------------------------------------------

   11   -1571.7192894628      5.84e-07  Convergence criterion met
 Total energy in the final basis set =    -1571.7192894628
        RIMP2         total energy =     -1576.3841016263 a.u.

                    Orbital Energies (a.u.)
 --------------------------------------------------------------

 Alpha MOs
 -- Occupied --
-91.9800 -20.5542 -20.5450 -20.5411 -20.5405 -15.6282 -15.6212 -11.3959
-11.3858 -11.3830 -11.3791 -11.3097 -11.3084 -11.3067 -11.3046 -11.2972
-11.2913 -11.2890 -11.2762 -11.2686 -11.2682 -11.2642 -11.2634 -11.2595
-11.2563 -11.2527 -11.2467  -8.9798  -6.6604  -6.6596  -6.6591  -1.4231
 -1.4120  -1.3993  -1.3912  -1.2637  -1.2554  -1.2305  -1.1867  -1.1503
 -1.1144  -1.0859  -1.0474  -0.9950  -0.9883  -0.9817  -0.9553  -0.9494
 -0.8968  -0.8889  -0.8775  -0.8604  -0.7922  -0.7784  -0.7727  -0.7624
 -0.7344  -0.7176  -0.7027  -0.6918  -0.6830  -0.6746  -0.6675  -0.6576
 -0.6481  -0.6453  -0.6368  -0.6326  -0.6309  -0.6294  -0.6211  -0.6057
 -0.5870  -0.5743  -0.5658  -0.5628  -0.5591  -0.5522  -0.5513  -0.5481
 -0.5476  -0.5443  -0.5235  -0.5108  -0.5089  -0.4834  -0.4734  -0.4603
 -0.4553  -0.4449  -0.4392  -0.4332  -0.4123  -0.4075  -0.3547  -0.3463
 -0.3303  -0.2788

          Ground-State Mulliken Net Atomic Charges

     Atom                 Charge (a.u.)
  ----------------------------------------
      1 C                    -0.084508
      2 C                    -0.030370
      3 C                    -0.109662
      4 C                    -0.124396
      5 H                     0.199220
      6 C                     0.024554
      7 C                     0.122904
      8 C                    -0.090974
      9 C                    -0.172560
     10 C                    -0.160316
     11 C                     0.203172
     12 H                     0.191603
     13 C                     0.340572
     14 C                     0.349312
     15 N                    -0.089764
     16 C                     0.356954
     17 C                     0.366456
     18 N                    -0.090439
     19 O                    -0.495654
     20 O                    -0.509564
     21 O                    -0.500828
     22 O                    -0.476245
     23 C                    -0.205103
     24 H                     0.139579
     25 H                     0.109268
     26 H                     0.108831
     27 C                    -0.197739
     28 H                     0.133910
     29 H                     0.111771
     30 H                     0.112425
     31 C                    -0.007387
     32 S                     0.065441
     33 C                    -0.229894
     34 C                    -0.236746
     35 C                    -0.193469
     36 H                     0.183506
     37 H                     0.189746
     38 H                     0.207808
     39 H                     0.137351
     40 H                     0.137843
     41 H                     0.213392
  ----------------------------------------
  Sum of atomic charges =     0.000000

                    Cartesian Multipole Moments
 -----------------------------------------------------------------
    Charge (ESU x 10^10)
                 0.0000
    Dipole Moment (Debye)
         X      -0.6096      Y       1.7336      Z      -0.1367
       Tot       1.8427
    Quadrupole Moments (Debye-Ang)
        XX    -168.1801     XY      10.3993     YY    -181.4610
        XZ      14.3133     YZ      -7.0886     ZZ    -180.5441

 Total job time:  295.35s(wall), 9058.36s(cpu)
        *  Thank you very much for using Q-Chem.  Have a nice day.  *
