 Q-Chem 5.4, Q-Chem, Inc., Pleasanton, CA (2021)
 Q-Chem 5.4.0 for Intel X86 EM64T Linux

User input:
--------------------------------------------------------------
$molecule
0 1
C	0.046070	-6.741404	0.252767
C	0.272935	-6.155638	1.538656
C	-0.141739	-5.791452	-0.814966
C	0.321083	-4.803786	1.813042
H	0.425592	-6.821518	2.403318
C	-0.091779	-4.378638	-0.527566
C	0.138909	-3.838032	0.782769
C	-0.273808	-3.413062	-1.556632
C	0.188483	-2.426473	1.067868
C	-0.226610	-2.059348	-1.285436
C	-0.000000	-1.478216	-0.000000
H	-0.379657	-1.394783	-2.151019
C	-0.390420	-6.187987	-2.235891
C	-0.522125	-3.798164	-2.965540
N	-0.562731	-5.170003	-3.205600
C	0.570244	-4.424987	3.225760
C	0.438407	-2.036627	2.489646
N	0.610438	-3.049156	3.459662
O	-0.455563	-7.353131	-2.621768
O	-0.683373	-2.986854	-3.874608
O	0.729367	-5.248946	4.124059
O	0.508697	-0.878829	2.896516
C	-0.806996	-5.563799	-4.596910
H	-0.813717	-6.664085	-4.641640
H	-0.013655	-5.147101	-5.246567
H	-1.775159	-5.148785	-4.936739
C	0.851572	-2.587487	4.829729
H	0.964204	-3.483329	5.462387
H	0.003956	-1.964972	5.173914
H	1.764390	-1.962932	4.863360
C	0.000000	0.000000	0.000000
S	0.607475	0.509994	1.580530
C	1.862020	1.562717	0.904911
C	0.764397	0.641624	-0.985400
C	1.775697	1.490335	-0.493528
H	0.583895	0.490135	-2.059934
H	2.450484	2.056643	-1.152593
H	2.536607	2.128872	1.556025
H	-0.857128	-7.361589	0.303328
H	0.912587	-7.361192	-0.007933
H	-1.063684	-1.478831	0.187017
$end

$rem
JOBTYPE		SP
EXCHANGE	HF
CORRELATION	pRIMP2
BASIS		cc-pvtz
METHOD		rimp2
AUX_BASIS	rimp2-cc-pvtz
SOLVENT_METHOD	PCM
PURECART	11111
SYMMETRY	false
MEM_TOTAL	110000
SCF_CONVERGENCE = 6
THRESH=10
GUI = 2
$end

$solvent
dielectric 4.90
$end
--------------------------------------------------------------

             Standard Nuclear Orientation (Angstroms)
    I     Atom           X                Y                Z
 ----------------------------------------------------------------
    1      C       0.0460700000    -6.7414040000     0.2527670000
    2      C       0.2729350000    -6.1556380000     1.5386560000
    3      C      -0.1417390000    -5.7914520000    -0.8149660000
    4      C       0.3210830000    -4.8037860000     1.8130420000
    5      H       0.4255920000    -6.8215180000     2.4033180000
    6      C      -0.0917790000    -4.3786380000    -0.5275660000
    7      C       0.1389090000    -3.8380320000     0.7827690000
    8      C      -0.2738080000    -3.4130620000    -1.5566320000
    9      C       0.1884830000    -2.4264730000     1.0678680000
   10      C      -0.2266100000    -2.0593480000    -1.2854360000
   11      C       0.0000000000    -1.4782160000     0.0000000000
   12      H      -0.3796570000    -1.3947830000    -2.1510190000
   13      C      -0.3904200000    -6.1879870000    -2.2358910000
   14      C      -0.5221250000    -3.7981640000    -2.9655400000
   15      N      -0.5627310000    -5.1700030000    -3.2056000000
   16      C       0.5702440000    -4.4249870000     3.2257600000
   17      C       0.4384070000    -2.0366270000     2.4896460000
   18      N       0.6104380000    -3.0491560000     3.4596620000
   19      O      -0.4555630000    -7.3531310000    -2.6217680000
   20      O      -0.6833730000    -2.9868540000    -3.8746080000
   21      O       0.7293670000    -5.2489460000     4.1240590000
   22      O       0.5086970000    -0.8788290000     2.8965160000
   23      C      -0.8069960000    -5.5637990000    -4.5969100000
   24      H      -0.8137170000    -6.6640850000    -4.6416400000
   25      H      -0.0136550000    -5.1471010000    -5.2465670000
   26      H      -1.7751590000    -5.1487850000    -4.9367390000
   27      C       0.8515720000    -2.5874870000     4.8297290000
   28      H       0.9642040000    -3.4833290000     5.4623870000
   29      H       0.0039560000    -1.9649720000     5.1739140000
   30      H       1.7643900000    -1.9629320000     4.8633600000
   31      C       0.0000000000     0.0000000000     0.0000000000
   32      S       0.6074750000     0.5099940000     1.5805300000
   33      C       1.8620200000     1.5627170000     0.9049110000
   34      C       0.7643970000     0.6416240000    -0.9854000000
   35      C       1.7756970000     1.4903350000    -0.4935280000
   36      H       0.5838950000     0.4901350000    -2.0599340000
   37      H       2.4504840000     2.0566430000    -1.1525930000
   38      H       2.5366070000     2.1288720000     1.5560250000
   39      H      -0.8571280000    -7.3615890000     0.3033280000
   40      H       0.9125870000    -7.3611920000    -0.0079330000
   41      H      -1.0636840000    -1.4788310000     0.1870170000
 ----------------------------------------------------------------

   11   -1571.5701363169      8.10e-07  Convergence criterion met
 Total energy in the final basis set =    -1571.5701363169
        RIMP2         total energy =     -1576.2689848474 a.u.

                    Orbital Energies (a.u.)
 --------------------------------------------------------------

 Alpha MOs
 -- Occupied --
-91.9775 -20.5715 -20.5493 -20.5391 -20.5388 -15.6378 -15.6202 -11.4123
-11.3901 -11.3813 -11.3773 -11.3122 -11.3102 -11.3058 -11.3046 -11.3003
-11.2814 -11.2707 -11.2686 -11.2655 -11.2622 -11.2620 -11.2587 -11.2568
-11.2531 -11.2470 -11.2298  -8.9774  -6.6580  -6.6556  -6.6540  -1.4585
 -1.4105  -1.4084  -1.3896  -1.2766  -1.2544  -1.2301  -1.1850  -1.1440
 -1.1147  -1.0827  -1.0491  -0.9976  -0.9904  -0.9807  -0.9574  -0.9455
 -0.9037  -0.8885  -0.8807  -0.8630  -0.7927  -0.7867  -0.7788  -0.7596
 -0.7404  -0.7264  -0.7018  -0.6912  -0.6878  -0.6800  -0.6686  -0.6591
 -0.6541  -0.6446  -0.6377  -0.6326  -0.6315  -0.6314  -0.6242  -0.6067
 -0.5924  -0.5807  -0.5679  -0.5653  -0.5601  -0.5557  -0.5553  -0.5485
 -0.5469  -0.5452  -0.5292  -0.5141  -0.5092  -0.4895  -0.4671  -0.4589
 -0.4508  -0.4420  -0.4399  -0.4242  -0.4065  -0.3810  -0.3551  -0.3254
 -0.2885  -0.2671

          Ground-State Mulliken Net Atomic Charges

     Atom                 Charge (a.u.)
  ----------------------------------------
      1 C                    -0.085739
      2 C                    -0.024034
      3 C                    -0.120038
      4 C                    -0.122384
      5 H                     0.199861
      6 C                     0.020240
      7 C                     0.131828
      8 C                    -0.095114
      9 C                    -0.243168
     10 C                    -0.136652
     11 C                     0.184187
     12 H                     0.193353
     13 C                     0.341369
     14 C                     0.345631
     15 N                    -0.088928
     16 C                     0.359466
     17 C                     0.403122
     18 N                    -0.082167
     19 O                    -0.499253
     20 O                    -0.511051
     21 O                    -0.496153
     22 O                    -0.376381
     23 C                    -0.205460
     24 H                     0.139297
     25 H                     0.108918
     26 H                     0.108732
     27 C                    -0.199245
     28 H                     0.136817
     29 H                     0.114095
     30 H                     0.114583
     31 C                    -0.119136
     32 S                     0.100184
     33 C                    -0.242060
     34 C                    -0.149519
     35 C                    -0.263757
     36 H                     0.184501
     37 H                     0.176595
     38 H                     0.199121
     39 H                     0.137615
     40 H                     0.137759
     41 H                     0.222965
  ----------------------------------------
  Sum of atomic charges =     0.000000

                    Cartesian Multipole Moments
 -----------------------------------------------------------------
    Charge (ESU x 10^10)
                 0.0000
    Dipole Moment (Debye)
         X       0.9064      Y       0.1074      Z       3.1779
       Tot       3.3064
    Quadrupole Moments (Debye-Ang)
        XX    -158.7744     XY       2.7932     YY    -186.1090
        XZ      -3.2272     YZ     -13.3412     ZZ    -182.0692

 Total job time:  338.44s(wall), 9609.84s(cpu)
        *  Thank you very much for using Q-Chem.  Have a nice day.  *
