 Q-Chem 5.4, Q-Chem, Inc., Pleasanton, CA (2021)
 Q-Chem 5.4.0 for Intel X86 EM64T Linux

User input:
--------------------------------------------------------------
$molecule
0 1
C	-0.129743	-6.741404	-0.221766
C	-0.782726	-6.155638	-1.352515
C	0.411926	-5.791452	0.717339
C	-0.921816	-4.803786	-1.593885
H	-1.221908	-6.821518	-2.112819
C	0.266682	-4.378638	0.464360
C	-0.398255	-3.838032	-0.688053
C	0.789694	-3.413062	1.369108
C	-0.542349	-2.426473	-0.939002
C	0.652589	-2.059348	1.130409
C	-0.000000	-1.478216	-0.000000
H	1.092453	-1.394783	1.891446
C	1.131595	-6.187987	1.967519
C	1.504912	-3.798164	2.608118
N	1.625174	-5.170003	2.819813
C	-1.639129	-4.424987	-2.836188
C	-1.263477	-2.036627	-2.189558
N	-1.756898	-3.049156	-3.042237
O	1.324787	-7.353131	2.307845
O	1.967354	-2.986854	3.407213
O	-2.095892	-5.248946	-3.625890
O	-1.468685	-0.878829	-2.547850
C	2.330564	-5.563799	4.043674
H	2.352178	-6.664085	4.083407
H	1.807263	-5.147101	4.925490
H	3.356568	-5.148785	4.031877
C	-2.452080	-2.587487	-4.247206
H	-2.774302	-3.483329	-4.803187
H	-1.773301	-1.964972	-4.860536
H	-3.321351	-1.962932	-3.966607
C	0.000000	0.000000	0.000000
S	0.686805	0.396760	1.580530
C	2.105095	1.215640	0.904911
C	0.864201	0.499140	-0.985400
C	2.007514	1.159347	-0.493528
H	0.660136	0.381296	-2.059934
H	2.770388	1.599875	-1.152593
H	2.867745	1.656053	1.556025
H	0.701693	-7.361589	-0.578191
H	-0.854838	-7.361192	0.319578
H	0.935572	-1.478831	-0.539540
$end

$rem
JOBTYPE		SP
EXCHANGE	HF
CORRELATION	pRIMP2
BASIS		cc-pvtz
METHOD		rimp2
AUX_BASIS	rimp2-cc-pvtz
SOLVENT_METHOD	PCM
PURECART	11111
SYMMETRY	false
MEM_TOTAL	110000
SCF_CONVERGENCE = 6
THRESH=10
GUI = 2
$end

$solvent
dielectric 4.90
$end
--------------------------------------------------------------

             Standard Nuclear Orientation (Angstroms)
    I     Atom           X                Y                Z
 ----------------------------------------------------------------
    1      C      -0.1297430000    -6.7414040000    -0.2217660000
    2      C      -0.7827260000    -6.1556380000    -1.3525150000
    3      C       0.4119260000    -5.7914520000     0.7173390000
    4      C      -0.9218160000    -4.8037860000    -1.5938850000
    5      H      -1.2219080000    -6.8215180000    -2.1128190000
    6      C       0.2666820000    -4.3786380000     0.4643600000
    7      C      -0.3982550000    -3.8380320000    -0.6880530000
    8      C       0.7896940000    -3.4130620000     1.3691080000
    9      C      -0.5423490000    -2.4264730000    -0.9390020000
   10      C       0.6525890000    -2.0593480000     1.1304090000
   11      C       0.0000000000    -1.4782160000     0.0000000000
   12      H       1.0924530000    -1.3947830000     1.8914460000
   13      C       1.1315950000    -6.1879870000     1.9675190000
   14      C       1.5049120000    -3.7981640000     2.6081180000
   15      N       1.6251740000    -5.1700030000     2.8198130000
   16      C      -1.6391290000    -4.4249870000    -2.8361880000
   17      C      -1.2634770000    -2.0366270000    -2.1895580000
   18      N      -1.7568980000    -3.0491560000    -3.0422370000
   19      O       1.3247870000    -7.3531310000     2.3078450000
   20      O       1.9673540000    -2.9868540000     3.4072130000
   21      O      -2.0958920000    -5.2489460000    -3.6258900000
   22      O      -1.4686850000    -0.8788290000    -2.5478500000
   23      C       2.3305640000    -5.5637990000     4.0436740000
   24      H       2.3521780000    -6.6640850000     4.0834070000
   25      H       1.8072630000    -5.1471010000     4.9254900000
   26      H       3.3565680000    -5.1487850000     4.0318770000
   27      C      -2.4520800000    -2.5874870000    -4.2472060000
   28      H      -2.7743020000    -3.4833290000    -4.8031870000
   29      H      -1.7733010000    -1.9649720000    -4.8605360000
   30      H      -3.3213510000    -1.9629320000    -3.9666070000
   31      C       0.0000000000     0.0000000000     0.0000000000
   32      S       0.6868050000     0.3967600000     1.5805300000
   33      C       2.1050950000     1.2156400000     0.9049110000
   34      C       0.8642010000     0.4991400000    -0.9854000000
   35      C       2.0075140000     1.1593470000    -0.4935280000
   36      H       0.6601360000     0.3812960000    -2.0599340000
   37      H       2.7703880000     1.5998750000    -1.1525930000
   38      H       2.8677450000     1.6560530000     1.5560250000
   39      H       0.7016930000    -7.3615890000    -0.5781910000
   40      H      -0.8548380000    -7.3611920000     0.3195780000
   41      H       0.9355720000    -1.4788310000    -0.5395400000
 ----------------------------------------------------------------

   11   -1571.6327538712      6.71e-07  Convergence criterion met
 Total energy in the final basis set =    -1571.6327538712
        RIMP2         total energy =     -1576.3153056101 a.u.

                    Orbital Energies (a.u.)
 --------------------------------------------------------------

 Alpha MOs
 -- Occupied --
-91.9940 -20.5536 -20.5438 -20.5372 -20.5365 -15.6269 -15.6181 -11.3939
-11.3843 -11.3786 -11.3751 -11.3075 -11.3043 -11.3012 -11.3000 -11.2941
-11.2931 -11.2858 -11.2768 -11.2694 -11.2657 -11.2630 -11.2604 -11.2577
-11.2566 -11.2560 -11.2491  -8.9962  -6.6767  -6.6760  -6.6757  -1.4203
 -1.4085  -1.3973  -1.3876  -1.2619  -1.2523  -1.2378  -1.1967  -1.1505
 -1.1104  -1.0834  -1.0462  -1.0048  -0.9998  -0.9858  -0.9536  -0.9459
 -0.8953  -0.8864  -0.8738  -0.8557  -0.8014  -0.7801  -0.7692  -0.7639
 -0.7378  -0.7217  -0.6995  -0.6942  -0.6865  -0.6696  -0.6657  -0.6552
 -0.6512  -0.6454  -0.6343  -0.6310  -0.6280  -0.6254  -0.6206  -0.6029
 -0.5942  -0.5818  -0.5711  -0.5607  -0.5573  -0.5510  -0.5488  -0.5483
 -0.5450  -0.5418  -0.5224  -0.5122  -0.4929  -0.4776  -0.4751  -0.4646
 -0.4542  -0.4500  -0.4394  -0.4314  -0.4132  -0.4050  -0.3492  -0.3457
 -0.3377  -0.2732

          Ground-State Mulliken Net Atomic Charges

     Atom                 Charge (a.u.)
  ----------------------------------------
      1 C                    -0.085173
      2 C                    -0.033867
      3 C                    -0.119235
      4 C                    -0.117068
      5 H                     0.197509
      6 C                     0.012038
      7 C                     0.105408
      8 C                    -0.025169
      9 C                    -0.185882
     10 C                    -0.206927
     11 C                     0.190025
     12 H                     0.194411
     13 C                     0.336735
     14 C                     0.346595
     15 N                    -0.087471
     16 C                     0.356370
     17 C                     0.359202
     18 N                    -0.090044
     19 O                    -0.502249
     20 O                    -0.516321
     21 O                    -0.502088
     22 O                    -0.476666
     23 C                    -0.206058
     24 H                     0.139069
     25 H                     0.108338
     26 H                     0.107729
     27 C                    -0.198590
     28 H                     0.133606
     29 H                     0.110260
     30 H                     0.112349
     31 C                    -0.104068
     32 S                     0.048953
     33 C                    -0.156782
     34 C                    -0.090600
     35 C                    -0.250152
     36 H                     0.210540
     37 H                     0.194125
     38 H                     0.220796
     39 H                     0.134455
     40 H                     0.134757
     41 H                     0.201137
  ----------------------------------------
  Sum of atomic charges =     0.000000

                    Cartesian Multipole Moments
 -----------------------------------------------------------------
    Charge (ESU x 10^10)
                 0.0000
    Dipole Moment (Debye)
         X       2.8558      Y       3.1110      Z      -2.1346
       Tot       4.7318
    Quadrupole Moments (Debye-Ang)
        XX    -161.5953     XY      10.0915     YY    -194.3489
        XZ     -13.8750     YZ      10.4249     ZZ    -180.7596

 Total job time:  306.91s(wall), 8638.78s(cpu)
        *  Thank you very much for using Q-Chem.  Have a nice day.  *
