 Q-Chem 5.4, Q-Chem, Inc., Pleasanton, CA (2021)
 Q-Chem 5.4.0 for Intel X86 EM64T Linux

User input:
--------------------------------------------------------------
$molecule
0 1
C	-0.089263	-6.741404	-0.240927
C	-0.535973	-6.155638	-1.467886
C	0.281103	-5.791452	0.777972
C	-0.631036	-4.803786	-1.729742
H	-0.836458	-6.821518	-2.292903
C	0.181995	-4.378638	0.503614
C	-0.272725	-3.838032	-0.746756
C	0.539954	-3.413062	1.485437
C	-0.371053	-2.426473	-1.018915
C	0.446381	-2.059348	1.226557
C	-0.000000	-1.478216	-0.000000
H	0.747410	-1.394783	2.052413
C	0.772747	-6.187987	2.134128
C	1.029154	-3.798164	2.829820
N	1.110828	-5.170003	3.059182
C	-1.121728	-4.424987	-3.077731
C	-0.864069	-2.036627	-2.375694
N	-1.201928	-3.049156	-3.301101
O	0.903908	-7.353131	2.502830
O	1.345809	-2.986854	3.697078
O	-1.434422	-5.248946	-3.934752
O	-1.003943	-0.878829	-2.764177
C	1.592981	-5.563799	4.386939
H	1.607367	-6.664085	4.429822
H	0.924504	-5.147101	5.164489
H	2.605446	-5.148785	4.553486
C	-1.677308	-2.587487	-4.608481
H	-1.898089	-3.483329	-5.211969
H	-0.902337	-1.964972	-5.094624
H	-2.582098	-1.962932	-4.483092
C	0.000000	0.000000	0.000000
S	0.607475	0.509994	1.580530
C	1.862020	1.562717	0.904911
C	0.764397	0.641624	-0.985400
C	1.775697	1.490335	-0.493528
H	0.583895	0.490135	-2.059934
H	2.450484	2.056643	-1.152593
H	2.536607	2.128872	1.556025
H	0.791434	-7.361589	-0.447559
H	-0.897345	-7.361192	0.166282
H	1.015049	-1.478831	-0.368883
$end

$rem
JOBTYPE		SP
EXCHANGE	HF
CORRELATION	pRIMP2
BASIS		cc-pvtz
METHOD		rimp2
AUX_BASIS	rimp2-cc-pvtz
SOLVENT_METHOD	PCM
PURECART	11111
SYMMETRY	false
MEM_TOTAL	110000
SCF_CONVERGENCE = 6
THRESH=10
GUI = 2
$end

$solvent
dielectric 4.90
$end
--------------------------------------------------------------

             Standard Nuclear Orientation (Angstroms)
    I     Atom           X                Y                Z
 ----------------------------------------------------------------
    1      C      -0.0892630000    -6.7414040000    -0.2409270000
    2      C      -0.5359730000    -6.1556380000    -1.4678860000
    3      C       0.2811030000    -5.7914520000     0.7779720000
    4      C      -0.6310360000    -4.8037860000    -1.7297420000
    5      H      -0.8364580000    -6.8215180000    -2.2929030000
    6      C       0.1819950000    -4.3786380000     0.5036140000
    7      C      -0.2727250000    -3.8380320000    -0.7467560000
    8      C       0.5399540000    -3.4130620000     1.4854370000
    9      C      -0.3710530000    -2.4264730000    -1.0189150000
   10      C       0.4463810000    -2.0593480000     1.2265570000
   11      C       0.0000000000    -1.4782160000     0.0000000000
   12      H       0.7474100000    -1.3947830000     2.0524130000
   13      C       0.7727470000    -6.1879870000     2.1341280000
   14      C       1.0291540000    -3.7981640000     2.8298200000
   15      N       1.1108280000    -5.1700030000     3.0591820000
   16      C      -1.1217280000    -4.4249870000    -3.0777310000
   17      C      -0.8640690000    -2.0366270000    -2.3756940000
   18      N      -1.2019280000    -3.0491560000    -3.3011010000
   19      O       0.9039080000    -7.3531310000     2.5028300000
   20      O       1.3458090000    -2.9868540000     3.6970780000
   21      O      -1.4344220000    -5.2489460000    -3.9347520000
   22      O      -1.0039430000    -0.8788290000    -2.7641770000
   23      C       1.5929810000    -5.5637990000     4.3869390000
   24      H       1.6073670000    -6.6640850000     4.4298220000
   25      H       0.9245040000    -5.1471010000     5.1644890000
   26      H       2.6054460000    -5.1487850000     4.5534860000
   27      C      -1.6773080000    -2.5874870000    -4.6084810000
   28      H      -1.8980890000    -3.4833290000    -5.2119690000
   29      H      -0.9023370000    -1.9649720000    -5.0946240000
   30      H      -2.5820980000    -1.9629320000    -4.4830920000
   31      C       0.0000000000     0.0000000000     0.0000000000
   32      S       0.6074750000     0.5099940000     1.5805300000
   33      C       1.8620200000     1.5627170000     0.9049110000
   34      C       0.7643970000     0.6416240000    -0.9854000000
   35      C       1.7756970000     1.4903350000    -0.4935280000
   36      H       0.5838950000     0.4901350000    -2.0599340000
   37      H       2.4504840000     2.0566430000    -1.1525930000
   38      H       2.5366070000     2.1288720000     1.5560250000
   39      H       0.7914340000    -7.3615890000    -0.4475590000
   40      H      -0.8973450000    -7.3611920000     0.1662820000
   41      H       1.0150490000    -1.4788310000    -0.3688830000
 ----------------------------------------------------------------

   11   -1571.6719120595      5.81e-07  Convergence criterion met
 Total energy in the final basis set =    -1571.6719120595
        RIMP2         total energy =     -1576.3459306582 a.u.

                    Orbital Energies (a.u.)
 --------------------------------------------------------------

 Alpha MOs
 -- Occupied --
-91.9909 -20.5538 -20.5445 -20.5386 -20.5383 -15.6277 -15.6193 -11.3951
-11.3852 -11.3806 -11.3764 -11.3066 -11.3026 -11.3017 -11.2978 -11.2957
-11.2956 -11.2877 -11.2844 -11.2670 -11.2641 -11.2635 -11.2596 -11.2583
-11.2576 -11.2522 -11.2508  -8.9925  -6.6731  -6.6723  -6.6721  -1.4216
 -1.4098  -1.3984  -1.3890  -1.2629  -1.2534  -1.2338  -1.1938  -1.1507
 -1.1118  -1.0844  -1.0465  -0.9984  -0.9956  -0.9868  -0.9543  -0.9470
 -0.8959  -0.8876  -0.8753  -0.8576  -0.7978  -0.7810  -0.7700  -0.7613
 -0.7379  -0.7194  -0.6996  -0.6931  -0.6850  -0.6711  -0.6668  -0.6562
 -0.6492  -0.6466  -0.6356  -0.6304  -0.6293  -0.6271  -0.6220  -0.6037
 -0.5935  -0.5757  -0.5715  -0.5612  -0.5582  -0.5516  -0.5493  -0.5485
 -0.5461  -0.5423  -0.5200  -0.5136  -0.4980  -0.4808  -0.4751  -0.4613
 -0.4549  -0.4508  -0.4407  -0.4331  -0.4141  -0.4062  -0.3552  -0.3469
 -0.3352  -0.2748

          Ground-State Mulliken Net Atomic Charges

     Atom                 Charge (a.u.)
  ----------------------------------------
      1 C                    -0.084512
      2 C                    -0.032862
      3 C                    -0.114334
      4 C                    -0.118347
      5 H                     0.198189
      6 C                     0.015462
      7 C                     0.115162
      8 C                    -0.023425
      9 C                    -0.210058
     10 C                    -0.197866
     11 C                     0.185671
     12 H                     0.194317
     13 C                     0.338507
     14 C                     0.345442
     15 N                    -0.088526
     16 C                     0.356997
     17 C                     0.369700
     18 N                    -0.090038
     19 O                    -0.499119
     20 O                    -0.512978
     21 O                    -0.501499
     22 O                    -0.483037
     23 C                    -0.205679
     24 H                     0.139131
     25 H                     0.108851
     26 H                     0.108318
     27 C                    -0.198378
     28 H                     0.133864
     29 H                     0.110689
     30 H                     0.112354
     31 C                    -0.052701
     32 S                     0.025109
     33 C                    -0.174048
     34 C                    -0.125562
     35 C                    -0.248040
     36 H                     0.213052
     37 H                     0.192900
     38 H                     0.217593
     39 H                     0.136002
     40 H                     0.136300
     41 H                     0.207399
  ----------------------------------------
  Sum of atomic charges =     0.000000

                    Cartesian Multipole Moments
 -----------------------------------------------------------------
    Charge (ESU x 10^10)
                 0.0000
    Dipole Moment (Debye)
         X       2.4377      Y       2.5877      Z      -2.2189
       Tot       4.1907
    Quadrupole Moments (Debye-Ang)
        XX    -159.5301     XY       8.1682     YY    -188.5026
        XZ     -10.2000     YZ      10.6348     ZZ    -185.3304

 Total job time:  309.27s(wall), 9256.11s(cpu)
        *  Thank you very much for using Q-Chem.  Have a nice day.  *
