 Q-Chem 5.4, Q-Chem, Inc., Pleasanton, CA (2021)
 Q-Chem 5.4.0 for Intel X86 EM64T Linux

User input:
--------------------------------------------------------------
$molecule
0 1
C	0.046070	-6.741404	0.252767
C	0.272935	-6.155638	1.538656
C	-0.141739	-5.791452	-0.814966
C	0.321083	-4.803786	1.813042
H	0.425592	-6.821518	2.403318
C	-0.091779	-4.378638	-0.527566
C	0.138909	-3.838032	0.782769
C	-0.273808	-3.413062	-1.556632
C	0.188483	-2.426473	1.067868
C	-0.226610	-2.059348	-1.285436
C	-0.000000	-1.478216	-0.000000
H	-0.379657	-1.394783	-2.151019
C	-0.390420	-6.187987	-2.235891
C	-0.522125	-3.798164	-2.965540
N	-0.562731	-5.170003	-3.205600
C	0.570244	-4.424987	3.225760
C	0.438407	-2.036627	2.489646
N	0.610438	-3.049156	3.459662
O	-0.455563	-7.353131	-2.621768
O	-0.683373	-2.986854	-3.874608
O	0.729367	-5.248946	4.124059
O	0.508697	-0.878829	2.896516
C	-0.806996	-5.563799	-4.596910
H	-0.813717	-6.664085	-4.641640
H	-0.013655	-5.147101	-5.246567
H	-1.775159	-5.148785	-4.936739
C	0.851572	-2.587487	4.829729
H	0.964204	-3.483329	5.462387
H	0.003956	-1.964972	5.173914
H	1.764390	-1.962932	4.863360
C	0.000000	0.000000	0.000000
S	-0.000201	0.793171	1.580530
C	-0.000228	2.430885	0.904911
C	-0.000168	0.997990	-0.985400
C	-0.000267	2.318231	-0.493528
H	-0.000145	0.762343	-2.059934
H	-0.000339	3.199164	-1.152593
H	-0.000311	3.311566	1.556025
H	-0.857128	-7.361589	0.303328
H	0.912587	-7.361192	-0.007933
H	-1.063684	-1.478831	0.187017
$end

$rem
JOBTYPE		SP
EXCHANGE	HF
CORRELATION	pRIMP2
BASIS		cc-pvtz
METHOD		rimp2
AUX_BASIS	rimp2-cc-pvtz
SOLVENT_METHOD	PCM
PURECART	11111
SYMMETRY	false
MEM_TOTAL	110000
SCF_CONVERGENCE = 6
THRESH=10
GUI = 2
$end

$solvent
dielectric 4.90
$end
--------------------------------------------------------------

             Standard Nuclear Orientation (Angstroms)
    I     Atom           X                Y                Z
 ----------------------------------------------------------------
    1      C       0.0460700000    -6.7414040000     0.2527670000
    2      C       0.2729350000    -6.1556380000     1.5386560000
    3      C      -0.1417390000    -5.7914520000    -0.8149660000
    4      C       0.3210830000    -4.8037860000     1.8130420000
    5      H       0.4255920000    -6.8215180000     2.4033180000
    6      C      -0.0917790000    -4.3786380000    -0.5275660000
    7      C       0.1389090000    -3.8380320000     0.7827690000
    8      C      -0.2738080000    -3.4130620000    -1.5566320000
    9      C       0.1884830000    -2.4264730000     1.0678680000
   10      C      -0.2266100000    -2.0593480000    -1.2854360000
   11      C       0.0000000000    -1.4782160000     0.0000000000
   12      H      -0.3796570000    -1.3947830000    -2.1510190000
   13      C      -0.3904200000    -6.1879870000    -2.2358910000
   14      C      -0.5221250000    -3.7981640000    -2.9655400000
   15      N      -0.5627310000    -5.1700030000    -3.2056000000
   16      C       0.5702440000    -4.4249870000     3.2257600000
   17      C       0.4384070000    -2.0366270000     2.4896460000
   18      N       0.6104380000    -3.0491560000     3.4596620000
   19      O      -0.4555630000    -7.3531310000    -2.6217680000
   20      O      -0.6833730000    -2.9868540000    -3.8746080000
   21      O       0.7293670000    -5.2489460000     4.1240590000
   22      O       0.5086970000    -0.8788290000     2.8965160000
   23      C      -0.8069960000    -5.5637990000    -4.5969100000
   24      H      -0.8137170000    -6.6640850000    -4.6416400000
   25      H      -0.0136550000    -5.1471010000    -5.2465670000
   26      H      -1.7751590000    -5.1487850000    -4.9367390000
   27      C       0.8515720000    -2.5874870000     4.8297290000
   28      H       0.9642040000    -3.4833290000     5.4623870000
   29      H       0.0039560000    -1.9649720000     5.1739140000
   30      H       1.7643900000    -1.9629320000     4.8633600000
   31      C       0.0000000000     0.0000000000     0.0000000000
   32      S      -0.0002010000     0.7931710000     1.5805300000
   33      C      -0.0002280000     2.4308850000     0.9049110000
   34      C      -0.0001680000     0.9979900000    -0.9854000000
   35      C      -0.0002670000     2.3182310000    -0.4935280000
   36      H      -0.0001450000     0.7623430000    -2.0599340000
   37      H      -0.0003390000     3.1991640000    -1.1525930000
   38      H      -0.0003110000     3.3115660000     1.5560250000
   39      H      -0.8571280000    -7.3615890000     0.3033280000
   40      H       0.9125870000    -7.3611920000    -0.0079330000
   41      H      -1.0636840000    -1.4788310000     0.1870170000
 ----------------------------------------------------------------

   11   -1571.6992083320      5.99e-07  Convergence criterion met
 Total energy in the final basis set =    -1571.6992083320
        RIMP2         total energy =     -1576.3665155616 a.u.

                    Orbital Energies (a.u.)
 --------------------------------------------------------------

 Alpha MOs
 -- Occupied --
-91.9692 -20.5569 -20.5472 -20.5432 -20.5421 -15.6314 -15.6227 -11.4016
-11.3880 -11.3851 -11.3806 -11.3134 -11.3103 -11.3093 -11.3067 -11.2999
-11.2950 -11.2925 -11.2718 -11.2708 -11.2674 -11.2653 -11.2603 -11.2549
-11.2544 -11.2451 -11.2364  -8.9693  -6.6498  -6.6485  -6.6476  -1.4327
 -1.4136  -1.4037  -1.3928  -1.2683  -1.2571  -1.2323  -1.1858  -1.1457
 -1.1166  -1.0871  -1.0500  -0.9949  -0.9899  -0.9745  -0.9570  -0.9477
 -0.8991  -0.8917  -0.8804  -0.8637  -0.7926  -0.7822  -0.7763  -0.7587
 -0.7313  -0.7264  -0.7014  -0.6903  -0.6893  -0.6758  -0.6695  -0.6596
 -0.6520  -0.6463  -0.6386  -0.6339  -0.6336  -0.6328  -0.6239  -0.6066
 -0.5903  -0.5725  -0.5669  -0.5634  -0.5556  -0.5538  -0.5535  -0.5501
 -0.5489  -0.5460  -0.5207  -0.5141  -0.5126  -0.4872  -0.4822  -0.4647
 -0.4566  -0.4453  -0.4386  -0.4203  -0.4090  -0.3885  -0.3560  -0.3362
 -0.3267  -0.2773

          Ground-State Mulliken Net Atomic Charges

     Atom                 Charge (a.u.)
  ----------------------------------------
      1 C                    -0.084567
      2 C                    -0.028553
      3 C                    -0.105098
      4 C                    -0.121971
      5 H                     0.200051
      6 C                     0.025157
      7 C                     0.125493
      8 C                    -0.104163
      9 C                    -0.193957
     10 C                    -0.141024
     11 C                     0.218253
     12 H                     0.193249
     13 C                     0.342993
     14 C                     0.351080
     15 N                    -0.090417
     16 C                     0.359117
     17 C                     0.381741
     18 N                    -0.088349
     19 O                    -0.492931
     20 O                    -0.506889
     21 O                    -0.498968
     22 O                    -0.446426
     23 C                    -0.204693
     24 H                     0.139774
     25 H                     0.109700
     26 H                     0.109426
     27 C                    -0.198969
     28 H                     0.135055
     29 H                     0.112902
     30 H                     0.113498
     31 C                    -0.057110
     32 S                     0.066940
     33 C                    -0.260716
     34 C                    -0.168923
     35 C                    -0.248023
     36 H                     0.180582
     37 H                     0.179470
     38 H                     0.201820
     39 H                     0.139087
     40 H                     0.139399
     41 H                     0.216958
  ----------------------------------------
  Sum of atomic charges =     0.000000

                    Cartesian Multipole Moments
 -----------------------------------------------------------------
    Charge (ESU x 10^10)
                 0.0000
    Dipole Moment (Debye)
         X      -0.4634      Y      -0.0574      Z       1.3114
       Tot       1.3921
    Quadrupole Moments (Debye-Ang)
        XX    -163.5626     XY      -0.3042     YY    -176.6813
        XZ      -4.9219     YZ      -9.6763     ZZ    -185.1857

 Total job time:  308.07s(wall), 9012.32s(cpu)
        *  Thank you very much for using Q-Chem.  Have a nice day.  *
