 Q-Chem 5.4, Q-Chem, Inc., Pleasanton, CA (2021)
 Q-Chem 5.4.0 for Intel X86 EM64T Linux

User input:
--------------------------------------------------------------
$molecule
0 1
C	0.086486	-6.741404	-0.241938
C	0.532960	-6.155638	-1.468983
C	-0.284733	-5.791452	0.776651
C	0.628455	-4.803786	-1.730681
H	0.833086	-6.821518	-2.294130
C	-0.184300	-4.378638	0.502775
C	0.271086	-3.838032	-0.747353
C	-0.541191	-3.413062	1.484986
C	0.370703	-2.426473	-1.019042
C	-0.446468	-2.059348	1.226525
C	-0.000000	-1.478216	-0.000000
H	-0.746717	-1.394783	2.052666
C	-0.779832	-6.187987	2.131549
C	-1.030596	-3.798164	2.829295
N	-1.115461	-5.170003	3.057496
C	1.119034	-4.424987	-3.078712
C	0.865151	-2.036627	-2.375300
N	1.201176	-3.049156	-3.301374
O	-0.916355	-7.353131	2.498300
O	-1.345486	-2.986854	3.697195
O	1.430379	-5.248946	-3.936224
O	1.007714	-0.878829	-2.762805
C	-1.599576	-5.563799	4.384539
H	-1.616121	-6.664085	4.426636
H	-2.611458	-5.147101	4.550487
H	-0.931037	-5.148785	5.162921
C	1.677382	-2.587487	-4.608454
H	1.896168	-3.483329	-5.212668
H	2.583531	-1.964972	-4.482719
H	0.903674	-1.962932	-5.093988
C	0.000000	0.000000	0.000000
S	0.686805	0.396760	1.580530
C	2.105095	1.215640	0.904911
C	0.864201	0.499140	-0.985400
C	2.007514	1.159347	-0.493528
H	0.660136	0.381296	-2.059934
H	2.770388	1.599875	-1.152593
H	2.867745	1.656053	1.556025
H	0.893959	-7.361589	0.165874
H	-0.794290	-7.361192	-0.449423
H	1.014686	-1.478831	0.369880
$end

$rem
JOBTYPE		SP
EXCHANGE	HF
CORRELATION	pRIMP2
BASIS		cc-pvtz
METHOD		rimp2
AUX_BASIS	rimp2-cc-pvtz
SOLVENT_METHOD	PCM
PURECART	11111
SYMMETRY	false
MEM_TOTAL	110000
SCF_CONVERGENCE = 6
THRESH=10
GUI = 2
$end

$solvent
dielectric 4.90
$end
--------------------------------------------------------------

             Standard Nuclear Orientation (Angstroms)
    I     Atom           X                Y                Z
 ----------------------------------------------------------------
    1      C       0.0864860000    -6.7414040000    -0.2419380000
    2      C       0.5329600000    -6.1556380000    -1.4689830000
    3      C      -0.2847330000    -5.7914520000     0.7766510000
    4      C       0.6284550000    -4.8037860000    -1.7306810000
    5      H       0.8330860000    -6.8215180000    -2.2941300000
    6      C      -0.1843000000    -4.3786380000     0.5027750000
    7      C       0.2710860000    -3.8380320000    -0.7473530000
    8      C      -0.5411910000    -3.4130620000     1.4849860000
    9      C       0.3707030000    -2.4264730000    -1.0190420000
   10      C      -0.4464680000    -2.0593480000     1.2265250000
   11      C       0.0000000000    -1.4782160000     0.0000000000
   12      H      -0.7467170000    -1.3947830000     2.0526660000
   13      C      -0.7798320000    -6.1879870000     2.1315490000
   14      C      -1.0305960000    -3.7981640000     2.8292950000
   15      N      -1.1154610000    -5.1700030000     3.0574960000
   16      C       1.1190340000    -4.4249870000    -3.0787120000
   17      C       0.8651510000    -2.0366270000    -2.3753000000
   18      N       1.2011760000    -3.0491560000    -3.3013740000
   19      O      -0.9163550000    -7.3531310000     2.4983000000
   20      O      -1.3454860000    -2.9868540000     3.6971950000
   21      O       1.4303790000    -5.2489460000    -3.9362240000
   22      O       1.0077140000    -0.8788290000    -2.7628050000
   23      C      -1.5995760000    -5.5637990000     4.3845390000
   24      H      -1.6161210000    -6.6640850000     4.4266360000
   25      H      -2.6114580000    -5.1471010000     4.5504870000
   26      H      -0.9310370000    -5.1487850000     5.1629210000
   27      C       1.6773820000    -2.5874870000    -4.6084540000
   28      H       1.8961680000    -3.4833290000    -5.2126680000
   29      H       2.5835310000    -1.9649720000    -4.4827190000
   30      H       0.9036740000    -1.9629320000    -5.0939880000
   31      C       0.0000000000     0.0000000000     0.0000000000
   32      S       0.6868050000     0.3967600000     1.5805300000
   33      C       2.1050950000     1.2156400000     0.9049110000
   34      C       0.8642010000     0.4991400000    -0.9854000000
   35      C       2.0075140000     1.1593470000    -0.4935280000
   36      H       0.6601360000     0.3812960000    -2.0599340000
   37      H       2.7703880000     1.5998750000    -1.1525930000
   38      H       2.8677450000     1.6560530000     1.5560250000
   39      H       0.8939590000    -7.3615890000     0.1658740000
   40      H      -0.7942900000    -7.3611920000    -0.4494230000
   41      H       1.0146860000    -1.4788310000     0.3698800000
 ----------------------------------------------------------------

   11   -1571.6206804475      5.77e-07  Convergence criterion met
 Total energy in the final basis set =    -1571.6206804475
        RIMP2         total energy =     -1576.2977704031 a.u.

                    Orbital Energies (a.u.)
 --------------------------------------------------------------

 Alpha MOs
 -- Occupied --
-91.9782 -20.5549 -20.5469 -20.5397 -20.5386 -15.6327 -15.6196 -11.4050
-11.3875 -11.3816 -11.3768 -11.3069 -11.3047 -11.3031 -11.3030 -11.3023
-11.2967 -11.2814 -11.2683 -11.2665 -11.2662 -11.2616 -11.2583 -11.2577
-11.2520 -11.2462 -11.2438  -8.9804  -6.6612  -6.6603  -6.6600  -1.4353
 -1.4104  -1.4039  -1.3895  -1.2693  -1.2540  -1.2335  -1.1933  -1.1492
 -1.1127  -1.0834  -1.0471  -0.9991  -0.9906  -0.9883  -0.9555  -0.9467
 -0.8999  -0.8860  -0.8781  -0.8605  -0.7925  -0.7838  -0.7762  -0.7651
 -0.7404  -0.7382  -0.7028  -0.6875  -0.6811  -0.6745  -0.6679  -0.6577
 -0.6503  -0.6480  -0.6368  -0.6332  -0.6309  -0.6303  -0.6235  -0.6033
 -0.5916  -0.5702  -0.5683  -0.5647  -0.5574  -0.5556  -0.5520  -0.5474
 -0.5463  -0.5418  -0.5161  -0.5116  -0.5013  -0.4717  -0.4691  -0.4621
 -0.4543  -0.4423  -0.4354  -0.4302  -0.4196  -0.4063  -0.3583  -0.3407
 -0.3316  -0.2731

          Ground-State Mulliken Net Atomic Charges

     Atom                 Charge (a.u.)
  ----------------------------------------
      1 C                    -0.084583
      2 C                    -0.030793
      3 C                    -0.115130
      4 C                    -0.117736
      5 H                     0.198367
      6 C                     0.016893
      7 C                     0.125074
      8 C                    -0.073262
      9 C                    -0.207982
     10 C                    -0.120815
     11 C                     0.157823
     12 H                     0.179888
     13 C                     0.341735
     14 C                     0.346541
     15 N                    -0.089679
     16 C                     0.357844
     17 C                     0.397688
     18 N                    -0.084006
     19 O                    -0.497162
     20 O                    -0.508914
     21 O                    -0.498630
     22 O                    -0.452386
     23 C                    -0.205466
     24 H                     0.139019
     25 H                     0.109037
     26 H                     0.108845
     27 C                    -0.200031
     28 H                     0.135689
     29 H                     0.112043
     30 H                     0.113371
     31 C                    -0.130288
     32 S                    -0.021162
     33 C                    -0.143539
     34 C                    -0.108664
     35 C                    -0.251111
     36 H                     0.239303
     37 H                     0.190467
     38 H                     0.216092
     39 H                     0.136879
     40 H                     0.137415
     41 H                     0.181325
  ----------------------------------------
  Sum of atomic charges =     0.000000

                    Cartesian Multipole Moments
 -----------------------------------------------------------------
    Charge (ESU x 10^10)
                 0.0000
    Dipole Moment (Debye)
         X       4.0670      Y       1.6967      Z      -2.9607
       Tot       5.3089
    Quadrupole Moments (Debye-Ang)
        XX    -157.0195     XY       0.8792     YY    -187.1256
        XZ      10.5446     YZ      10.1282     ZZ    -183.5179

 Total job time:  318.44s(wall), 9079.09s(cpu)
        *  Thank you very much for using Q-Chem.  Have a nice day.  *
