 Q-Chem 5.4, Q-Chem, Inc., Pleasanton, CA (2021)
 Q-Chem 5.4.0 for Intel X86 EM64T Linux

User input:
--------------------------------------------------------------
$molecule
0 1
C	0.256927	-6.741404	-0.001478
C	1.562675	-6.155638	-0.001603
C	-0.827197	-5.791452	-0.001931
C	1.841253	-4.803786	-0.001374
H	2.440709	-6.821518	-0.001794
C	-0.535488	-4.378638	-0.001227
C	0.794999	-3.838032	-0.000872
C	-1.580529	-3.413062	-0.000658
C	1.084374	-2.426473	-0.000186
C	-1.305258	-2.059348	-0.000046
C	-0.000000	-1.478216	-0.000000
H	-2.184267	-1.394783	0.000369
C	-2.269719	-6.187987	-0.003770
C	-3.011152	-3.798164	-0.000767
N	-3.254617	-5.170003	-0.002465
C	3.275775	-4.424987	-0.001433
C	2.527951	-2.036627	0.000576
N	3.513104	-3.049156	-0.000400
O	-2.661046	-7.353131	-0.006623
O	-3.934410	-2.986854	0.000172
O	4.188059	-5.248946	-0.002151
O	2.940845	-0.878829	0.002006
C	-4.667206	-5.563799	-0.003509
H	-4.712423	-6.664085	-0.004658
H	-5.169231	-5.147101	-0.897610
H	-5.169992	-5.148785	0.890935
C	4.904229	-2.587487	0.000039
H	5.546833	-3.483329	-0.001022
H	5.095998	-1.964972	0.894545
H	5.095858	-1.962932	-0.893071
C	0.000000	0.000000	0.000000
S	-0.000201	0.793171	1.580530
C	-0.000228	2.430885	0.904911
C	-0.000168	0.997990	-0.985400
C	-0.000267	2.318231	-0.493528
H	-0.000145	0.762343	-2.059934
H	-0.000339	3.199164	-1.152593
H	-0.000311	3.311566	1.556025
H	0.149881	-7.361589	0.896779
H	0.150656	-7.361192	-0.900100
H	-0.000531	-1.478831	1.080000
$end

$rem
JOBTYPE		SP
EXCHANGE	HF
CORRELATION	pRIMP2
BASIS		cc-pvtz
METHOD		rimp2
AUX_BASIS	rimp2-cc-pvtz
SOLVENT_METHOD	PCM
PURECART	11111
SYMMETRY	false
MEM_TOTAL	110000
SCF_CONVERGENCE = 6
THRESH=10
GUI = 2
$end

$solvent
dielectric 4.90
$end
--------------------------------------------------------------

             Standard Nuclear Orientation (Angstroms)
    I     Atom           X                Y                Z
 ----------------------------------------------------------------
    1      C       0.2569270000    -6.7414040000    -0.0014780000
    2      C       1.5626750000    -6.1556380000    -0.0016030000
    3      C      -0.8271970000    -5.7914520000    -0.0019310000
    4      C       1.8412530000    -4.8037860000    -0.0013740000
    5      H       2.4407090000    -6.8215180000    -0.0017940000
    6      C      -0.5354880000    -4.3786380000    -0.0012270000
    7      C       0.7949990000    -3.8380320000    -0.0008720000
    8      C      -1.5805290000    -3.4130620000    -0.0006580000
    9      C       1.0843740000    -2.4264730000    -0.0001860000
   10      C      -1.3052580000    -2.0593480000    -0.0000460000
   11      C       0.0000000000    -1.4782160000     0.0000000000
   12      H      -2.1842670000    -1.3947830000     0.0003690000
   13      C      -2.2697190000    -6.1879870000    -0.0037700000
   14      C      -3.0111520000    -3.7981640000    -0.0007670000
   15      N      -3.2546170000    -5.1700030000    -0.0024650000
   16      C       3.2757750000    -4.4249870000    -0.0014330000
   17      C       2.5279510000    -2.0366270000     0.0005760000
   18      N       3.5131040000    -3.0491560000    -0.0004000000
   19      O      -2.6610460000    -7.3531310000    -0.0066230000
   20      O      -3.9344100000    -2.9868540000     0.0001720000
   21      O       4.1880590000    -5.2489460000    -0.0021510000
   22      O       2.9408450000    -0.8788290000     0.0020060000
   23      C      -4.6672060000    -5.5637990000    -0.0035090000
   24      H      -4.7124230000    -6.6640850000    -0.0046580000
   25      H      -5.1692310000    -5.1471010000    -0.8976100000
   26      H      -5.1699920000    -5.1487850000     0.8909350000
   27      C       4.9042290000    -2.5874870000     0.0000390000
   28      H       5.5468330000    -3.4833290000    -0.0010220000
   29      H       5.0959980000    -1.9649720000     0.8945450000
   30      H       5.0958580000    -1.9629320000    -0.8930710000
   31      C       0.0000000000     0.0000000000     0.0000000000
   32      S      -0.0002010000     0.7931710000     1.5805300000
   33      C      -0.0002280000     2.4308850000     0.9049110000
   34      C      -0.0001680000     0.9979900000    -0.9854000000
   35      C      -0.0002670000     2.3182310000    -0.4935280000
   36      H      -0.0001450000     0.7623430000    -2.0599340000
   37      H      -0.0003390000     3.1991640000    -1.1525930000
   38      H      -0.0003110000     3.3115660000     1.5560250000
   39      H       0.1498810000    -7.3615890000     0.8967790000
   40      H       0.1506560000    -7.3611920000    -0.9001000000
   41      H      -0.0005310000    -1.4788310000     1.0800000000
 ----------------------------------------------------------------

   11   -1571.7468169147      5.56e-07  Convergence criterion met
 Total energy in the final basis set =    -1571.7468169147
        RIMP2         total energy =     -1576.4004748335 a.u.

                    Orbital Energies (a.u.)
 --------------------------------------------------------------

 Alpha MOs
 -- Occupied --
-91.9934 -20.5517 -20.5443 -20.5421 -20.5407 -15.6266 -15.6214 -11.3929
-11.3850 -11.3839 -11.3793 -11.3088 -11.3083 -11.3048 -11.3045 -11.2964
-11.2951 -11.2894 -11.2823 -11.2697 -11.2680 -11.2648 -11.2625 -11.2595
-11.2529 -11.2527 -11.2511  -8.9930  -6.6738  -6.6734  -6.6727  -1.4190
 -1.4125  -1.3969  -1.3916  -1.2618  -1.2556  -1.2300  -1.1869  -1.1527
 -1.1141  -1.0869  -1.0466  -0.9962  -0.9877  -0.9846  -0.9550  -0.9511
 -0.8962  -0.8873  -0.8766  -0.8600  -0.7936  -0.7760  -0.7737  -0.7685
 -0.7384  -0.7165  -0.7043  -0.6914  -0.6777  -0.6704  -0.6676  -0.6572
 -0.6470  -0.6407  -0.6381  -0.6322  -0.6310  -0.6270  -0.6227  -0.6052
 -0.5846  -0.5753  -0.5663  -0.5612  -0.5571  -0.5512  -0.5503  -0.5480
 -0.5456  -0.5436  -0.5202  -0.5182  -0.5088  -0.4806  -0.4748  -0.4694
 -0.4578  -0.4510  -0.4429  -0.4348  -0.4132  -0.4075  -0.3571  -0.3510
 -0.3273  -0.2914

          Ground-State Mulliken Net Atomic Charges

     Atom                 Charge (a.u.)
  ----------------------------------------
      1 C                    -0.084660
      2 C                    -0.030821
      3 C                    -0.109926
      4 C                    -0.120950
      5 H                     0.198684
      6 C                     0.010903
      7 C                     0.123078
      8 C                    -0.087153
      9 C                    -0.179901
     10 C                    -0.124412
     11 C                     0.241045
     12 H                     0.192624
     13 C                     0.343616
     14 C                     0.350743
     15 N                    -0.090483
     16 C                     0.357448
     17 C                     0.352106
     18 N                    -0.092302
     19 O                    -0.493758
     20 O                    -0.506965
     21 O                    -0.501698
     22 O                    -0.472239
     23 C                    -0.204701
     24 H                     0.139466
     25 H                     0.109178
     26 H                     0.109219
     27 C                    -0.197015
     28 H                     0.133191
     29 H                     0.111641
     30 H                     0.111494
     31 C                    -0.065370
     32 S                     0.011023
     33 C                    -0.216173
     34 C                    -0.166934
     35 C                    -0.204608
     36 H                     0.188691
     37 H                     0.191407
     38 H                     0.212741
     39 H                     0.137737
     40 H                     0.137859
     41 H                     0.186177
  ----------------------------------------
  Sum of atomic charges =     0.000000

                    Cartesian Multipole Moments
 -----------------------------------------------------------------
    Charge (ESU x 10^10)
                 0.0000
    Dipole Moment (Debye)
         X       0.8543      Y       2.2741      Z      -0.2258
       Tot       2.4398
    Quadrupole Moments (Debye-Ang)
        XX    -196.0298     XY      -8.5466     YY    -176.8552
        XZ       0.1144     YZ      -0.4933     ZZ    -156.1455

 Total job time:  317.72s(wall), 9199.92s(cpu)
        *  Thank you very much for using Q-Chem.  Have a nice day.  *
