 Q-Chem 5.4, Q-Chem, Inc., Pleasanton, CA (2021)
 Q-Chem 5.4.0 for Intel X86 EM64T Linux

User input:
--------------------------------------------------------------
$molecule
0 1
C	0.164018	-6.741404	-0.197767
C	1.003240	-6.155638	-1.198109
C	-0.533192	-5.791452	0.632428
C	1.182482	-4.803786	-1.411364
H	1.567483	-6.821518	-1.870845
C	-0.345145	-4.378638	0.409419
C	0.510347	-3.838032	-0.609565
C	-1.016449	-3.413062	1.210332
C	0.696879	-2.426473	-0.830799
C	-0.839039	-2.059348	0.999856
C	0.000000	-1.478216	0.000000
H	-1.403737	-1.394783	1.673483
C	-1.461835	-6.187987	1.736282
C	-1.936119	-3.798164	2.306183
N	-2.093916	-5.170003	2.491597
C	2.104529	-4.424987	-2.510310
C	1.625377	-2.036627	-1.936153
N	2.257873	-3.049156	-2.691451
O	-1.715561	-7.353131	2.034222
O	-2.528858	-2.986854	3.014044
O	2.690385	-5.248946	-3.209622
O	1.891876	-0.878829	-2.251529
C	-3.002711	-5.563799	3.573032
H	-3.032655	-6.664085	3.606932
H	-4.010326	-5.147101	3.382888
H	-2.640711	-5.148785	4.533125
C	3.152408	-2.587487	-3.756832
H	3.564653	-3.483329	-4.249778
H	3.960905	-1.964972	-3.328759
H	2.591422	-1.962932	-4.477709
C	0.000000	0.000000	0.000000
S	0.137535	0.781156	1.580530
C	0.421895	2.393994	0.904911
C	0.173134	0.982857	-0.985400
C	0.402294	2.283058	-0.493528
H	0.132237	0.750786	-2.059934
H	0.555196	3.150621	-1.152593
H	0.574741	3.261310	1.556025
H	0.783314	-7.361589	0.461623
H	-0.592677	-7.361192	-0.693983
H	0.826987	-1.478831	0.694617
$end

$rem
JOBTYPE		SP
EXCHANGE	HF
CORRELATION	pRIMP2
BASIS		cc-pvtz
METHOD		rimp2
AUX_BASIS	rimp2-cc-pvtz
SOLVENT_METHOD	PCM
PURECART	11111
SYMMETRY	false
MEM_TOTAL	110000
SCF_CONVERGENCE = 6
THRESH=10
GUI = 2
$end

$solvent
dielectric 4.90
$end
--------------------------------------------------------------

             Standard Nuclear Orientation (Angstroms)
    I     Atom           X                Y                Z
 ----------------------------------------------------------------
    1      C       0.1640180000    -6.7414040000    -0.1977670000
    2      C       1.0032400000    -6.1556380000    -1.1981090000
    3      C      -0.5331920000    -5.7914520000     0.6324280000
    4      C       1.1824820000    -4.8037860000    -1.4113640000
    5      H       1.5674830000    -6.8215180000    -1.8708450000
    6      C      -0.3451450000    -4.3786380000     0.4094190000
    7      C       0.5103470000    -3.8380320000    -0.6095650000
    8      C      -1.0164490000    -3.4130620000     1.2103320000
    9      C       0.6968790000    -2.4264730000    -0.8307990000
   10      C      -0.8390390000    -2.0593480000     0.9998560000
   11      C       0.0000000000    -1.4782160000     0.0000000000
   12      H      -1.4037370000    -1.3947830000     1.6734830000
   13      C      -1.4618350000    -6.1879870000     1.7362820000
   14      C      -1.9361190000    -3.7981640000     2.3061830000
   15      N      -2.0939160000    -5.1700030000     2.4915970000
   16      C       2.1045290000    -4.4249870000    -2.5103100000
   17      C       1.6253770000    -2.0366270000    -1.9361530000
   18      N       2.2578730000    -3.0491560000    -2.6914510000
   19      O      -1.7155610000    -7.3531310000     2.0342220000
   20      O      -2.5288580000    -2.9868540000     3.0140440000
   21      O       2.6903850000    -5.2489460000    -3.2096220000
   22      O       1.8918760000    -0.8788290000    -2.2515290000
   23      C      -3.0027110000    -5.5637990000     3.5730320000
   24      H      -3.0326550000    -6.6640850000     3.6069320000
   25      H      -4.0103260000    -5.1471010000     3.3828880000
   26      H      -2.6407110000    -5.1487850000     4.5331250000
   27      C       3.1524080000    -2.5874870000    -3.7568320000
   28      H       3.5646530000    -3.4833290000    -4.2497780000
   29      H       3.9609050000    -1.9649720000    -3.3287590000
   30      H       2.5914220000    -1.9629320000    -4.4777090000
   31      C       0.0000000000     0.0000000000     0.0000000000
   32      S       0.1375350000     0.7811560000     1.5805300000
   33      C       0.4218950000     2.3939940000     0.9049110000
   34      C       0.1731340000     0.9828570000    -0.9854000000
   35      C       0.4022940000     2.2830580000    -0.4935280000
   36      H       0.1322370000     0.7507860000    -2.0599340000
   37      H       0.5551960000     3.1506210000    -1.1525930000
   38      H       0.5747410000     3.2613100000     1.5560250000
   39      H       0.7833140000    -7.3615890000     0.4616230000
   40      H      -0.5926770000    -7.3611920000    -0.6939830000
   41      H       0.8269870000    -1.4788310000     0.6946170000
 ----------------------------------------------------------------

   11   -1571.7410322492      5.78e-07  Convergence criterion met
 Total energy in the final basis set =    -1571.7410322492
        RIMP2         total energy =     -1576.3970668952 a.u.

                    Orbital Energies (a.u.)
 --------------------------------------------------------------

 Alpha MOs
 -- Occupied --
-91.9907 -20.5512 -20.5448 -20.5421 -20.5410 -15.6273 -15.6216 -11.3939
-11.3855 -11.3839 -11.3796 -11.3091 -11.3089 -11.3057 -11.3051 -11.2969
-11.2944 -11.2905 -11.2799 -11.2698 -11.2685 -11.2662 -11.2634 -11.2595
-11.2531 -11.2492 -11.2471  -8.9906  -6.6715  -6.6711  -6.6704  -1.4201
 -1.4126  -1.3977  -1.3917  -1.2626  -1.2558  -1.2310  -1.1873  -1.1515
 -1.1146  -1.0872  -1.0475  -0.9959  -0.9881  -0.9824  -0.9554  -0.9501
 -0.8968  -0.8885  -0.8774  -0.8607  -0.7940  -0.7772  -0.7713  -0.7642
 -0.7414  -0.7154  -0.7025  -0.6906  -0.6776  -0.6733  -0.6675  -0.6575
 -0.6477  -0.6452  -0.6385  -0.6317  -0.6312  -0.6276  -0.6228  -0.6054
 -0.5877  -0.5731  -0.5649  -0.5601  -0.5573  -0.5519  -0.5500  -0.5480
 -0.5478  -0.5435  -0.5203  -0.5162  -0.5098  -0.4843  -0.4754  -0.4663
 -0.4579  -0.4514  -0.4432  -0.4352  -0.4137  -0.4078  -0.3541  -0.3525
 -0.3297  -0.2823

          Ground-State Mulliken Net Atomic Charges

     Atom                 Charge (a.u.)
  ----------------------------------------
      1 C                    -0.085270
      2 C                    -0.029257
      3 C                    -0.110467
      4 C                    -0.127775
      5 H                     0.198987
      6 C                     0.019203
      7 C                     0.124615
      8 C                    -0.064920
      9 C                    -0.159734
     10 C                    -0.189721
     11 C                     0.251829
     12 H                     0.188255
     13 C                     0.344105
     14 C                     0.350132
     15 N                    -0.089940
     16 C                     0.357815
     17 C                     0.359747
     18 N                    -0.088137
     19 O                    -0.493830
     20 O                    -0.506257
     21 O                    -0.501579
     22 O                    -0.472184
     23 C                    -0.204604
     24 H                     0.139464
     25 H                     0.109369
     26 H                     0.109249
     27 C                    -0.197515
     28 H                     0.133677
     29 H                     0.111612
     30 H                     0.111173
     31 C                    -0.084469
     32 S                     0.007275
     33 C                    -0.225465
     34 C                    -0.149582
     35 C                    -0.205689
     36 H                     0.186229
     37 H                     0.190406
     38 H                     0.212622
     39 H                     0.137793
     40 H                     0.138184
     41 H                     0.204653
  ----------------------------------------
  Sum of atomic charges =     0.000000

                    Cartesian Multipole Moments
 -----------------------------------------------------------------
    Charge (ESU x 10^10)
                 0.0000
    Dipole Moment (Debye)
         X       1.6280      Y       1.9847      Z      -1.3767
       Tot       2.9129
    Quadrupole Moments (Debye-Ang)
        XX    -175.8240     XY      -4.5902     YY    -177.2386
        XZ      16.2990     YZ       6.2910     ZZ    -175.8375

 Total job time:  295.59s(wall), 8640.59s(cpu)
        *  Thank you very much for using Q-Chem.  Have a nice day.  *
