 Q-Chem 5.4, Q-Chem, Inc., Pleasanton, CA (2021)
 Q-Chem 5.4.0 for Intel X86 EM64T Linux

User input:
--------------------------------------------------------------
$molecule
0 1
C	-0.252767	-6.741404	0.046070
C	-1.538656	-6.155638	0.272935
C	0.814966	-5.791452	-0.141739
C	-1.813042	-4.803786	0.321083
H	-2.403318	-6.821518	0.425592
C	0.527566	-4.378638	-0.091779
C	-0.782769	-3.838032	0.138909
C	1.556632	-3.413062	-0.273808
C	-1.067868	-2.426473	0.188483
C	1.285436	-2.059348	-0.226610
C	0.000000	-1.478216	0.000000
H	2.151019	-1.394783	-0.379657
C	2.235891	-6.187987	-0.390420
C	2.965540	-3.798164	-0.522125
N	3.205600	-5.170003	-0.562731
C	-3.225760	-4.424987	0.570244
C	-2.489646	-2.036627	0.438407
N	-3.459662	-3.049156	0.610438
O	2.621768	-7.353131	-0.455563
O	3.874608	-2.986854	-0.683373
O	-4.124059	-5.248946	0.729367
O	-2.896516	-0.878829	0.508697
C	4.596910	-5.563799	-0.806996
H	4.641640	-6.664085	-0.813717
H	5.246567	-5.147101	-0.013655
H	4.936739	-5.148785	-1.775159
C	-4.829729	-2.587487	0.851572
H	-5.462387	-3.483329	0.964204
H	-5.173914	-1.964972	0.003956
H	-4.863360	-1.962932	1.764390
C	0.000000	0.000000	0.000000
S	0.205093	0.766196	1.580530
C	0.628939	2.348114	0.904911
C	0.258137	0.964028	-0.985400
C	0.599745	2.239309	-0.493528
H	0.197169	0.736404	-2.059934
H	0.827678	3.090243	-1.152593
H	0.856796	3.198808	1.556025
H	-0.303328	-7.361589	-0.857128
H	0.007933	-7.361192	0.912587
H	-0.187017	-1.478831	-1.063684
$end

$rem
JOBTYPE		SP
EXCHANGE	HF
CORRELATION	pRIMP2
BASIS		cc-pvtz
METHOD		rimp2
AUX_BASIS	rimp2-cc-pvtz
SOLVENT_METHOD	PCM
PURECART	11111
SYMMETRY	false
MEM_TOTAL	110000
SCF_CONVERGENCE = 6
THRESH=10
GUI = 2
$end

$solvent
dielectric 4.90
$end
--------------------------------------------------------------

             Standard Nuclear Orientation (Angstroms)
    I     Atom           X                Y                Z
 ----------------------------------------------------------------
    1      C      -0.2527670000    -6.7414040000     0.0460700000
    2      C      -1.5386560000    -6.1556380000     0.2729350000
    3      C       0.8149660000    -5.7914520000    -0.1417390000
    4      C      -1.8130420000    -4.8037860000     0.3210830000
    5      H      -2.4033180000    -6.8215180000     0.4255920000
    6      C       0.5275660000    -4.3786380000    -0.0917790000
    7      C      -0.7827690000    -3.8380320000     0.1389090000
    8      C       1.5566320000    -3.4130620000    -0.2738080000
    9      C      -1.0678680000    -2.4264730000     0.1884830000
   10      C       1.2854360000    -2.0593480000    -0.2266100000
   11      C       0.0000000000    -1.4782160000     0.0000000000
   12      H       2.1510190000    -1.3947830000    -0.3796570000
   13      C       2.2358910000    -6.1879870000    -0.3904200000
   14      C       2.9655400000    -3.7981640000    -0.5221250000
   15      N       3.2056000000    -5.1700030000    -0.5627310000
   16      C      -3.2257600000    -4.4249870000     0.5702440000
   17      C      -2.4896460000    -2.0366270000     0.4384070000
   18      N      -3.4596620000    -3.0491560000     0.6104380000
   19      O       2.6217680000    -7.3531310000    -0.4555630000
   20      O       3.8746080000    -2.9868540000    -0.6833730000
   21      O      -4.1240590000    -5.2489460000     0.7293670000
   22      O      -2.8965160000    -0.8788290000     0.5086970000
   23      C       4.5969100000    -5.5637990000    -0.8069960000
   24      H       4.6416400000    -6.6640850000    -0.8137170000
   25      H       5.2465670000    -5.1471010000    -0.0136550000
   26      H       4.9367390000    -5.1487850000    -1.7751590000
   27      C      -4.8297290000    -2.5874870000     0.8515720000
   28      H      -5.4623870000    -3.4833290000     0.9642040000
   29      H      -5.1739140000    -1.9649720000     0.0039560000
   30      H      -4.8633600000    -1.9629320000     1.7643900000
   31      C       0.0000000000     0.0000000000     0.0000000000
   32      S       0.2050930000     0.7661960000     1.5805300000
   33      C       0.6289390000     2.3481140000     0.9049110000
   34      C       0.2581370000     0.9640280000    -0.9854000000
   35      C       0.5997450000     2.2393090000    -0.4935280000
   36      H       0.1971690000     0.7364040000    -2.0599340000
   37      H       0.8276780000     3.0902430000    -1.1525930000
   38      H       0.8567960000     3.1988080000     1.5560250000
   39      H      -0.3033280000    -7.3615890000    -0.8571280000
   40      H       0.0079330000    -7.3611920000     0.9125870000
   41      H      -0.1870170000    -1.4788310000    -1.0636840000
 ----------------------------------------------------------------

   11   -1571.7477068436      5.43e-07  Convergence criterion met
 Total energy in the final basis set =    -1571.7477068436
        RIMP2         total energy =     -1576.4021142706 a.u.

                    Orbital Energies (a.u.)
 --------------------------------------------------------------

 Alpha MOs
 -- Occupied --
-91.9869 -20.5525 -20.5444 -20.5420 -20.5408 -15.6268 -15.6215 -11.3934
-11.3851 -11.3838 -11.3795 -11.3095 -11.3085 -11.3051 -11.3049 -11.2976
-11.2965 -11.2899 -11.2822 -11.2695 -11.2681 -11.2650 -11.2626 -11.2596
-11.2585 -11.2529 -11.2511  -8.9867  -6.6676  -6.6671  -6.6665  -1.4194
 -1.4125  -1.3972  -1.3916  -1.2620  -1.2556  -1.2299  -1.1868  -1.1528
 -1.1143  -1.0866  -1.0468  -0.9957  -0.9878  -0.9848  -0.9552  -0.9511
 -0.8966  -0.8878  -0.8766  -0.8599  -0.7949  -0.7770  -0.7709  -0.7627
 -0.7425  -0.7174  -0.7045  -0.6918  -0.6810  -0.6722  -0.6667  -0.6573
 -0.6472  -0.6442  -0.6361  -0.6332  -0.6310  -0.6277  -0.6218  -0.6047
 -0.5846  -0.5758  -0.5677  -0.5615  -0.5574  -0.5513  -0.5507  -0.5481
 -0.5465  -0.5437  -0.5207  -0.5155  -0.5088  -0.4824  -0.4751  -0.4618
 -0.4579  -0.4513  -0.4430  -0.4348  -0.4134  -0.4075  -0.3563  -0.3506
 -0.3283  -0.2902

          Ground-State Mulliken Net Atomic Charges

     Atom                 Charge (a.u.)
  ----------------------------------------
      1 C                    -0.084238
      2 C                    -0.031330
      3 C                    -0.111314
      4 C                    -0.121276
      5 H                     0.198831
      6 C                     0.018436
      7 C                     0.120933
      8 C                    -0.086923
      9 C                    -0.172636
     10 C                    -0.104994
     11 C                     0.153128
     12 H                     0.197537
     13 C                     0.343529
     14 C                     0.345577
     15 N                    -0.090156
     16 C                     0.357151
     17 C                     0.344490
     18 N                    -0.093112
     19 O                    -0.493972
     20 O                    -0.507051
     21 O                    -0.501538
     22 O                    -0.471081
     23 C                    -0.204786
     24 H                     0.139551
     25 H                     0.109428
     26 H                     0.108881
     27 C                    -0.196881
     28 H                     0.133047
     29 H                     0.111318
     30 H                     0.112171
     31 C                     0.018094
     32 S                     0.013559
     33 C                    -0.209305
     34 C                    -0.209502
     35 C                    -0.200563
     36 H                     0.186725
     37 H                     0.192474
     38 H                     0.210395
     39 H                     0.137560
     40 H                     0.137924
     41 H                     0.199919
  ----------------------------------------
  Sum of atomic charges =     0.000000

                    Cartesian Multipole Moments
 -----------------------------------------------------------------
    Charge (ESU x 10^10)
                 0.0000
    Dipole Moment (Debye)
         X      -0.4925      Y       2.1274      Z      -1.6845
       Tot       2.7579
    Quadrupole Moments (Debye-Ang)
        XX    -194.1986     XY      11.5965     YY    -177.9498
        XZ       5.8661     YZ       0.3845     ZZ    -157.3360

 Total job time:  302.00s(wall), 9350.68s(cpu)
        *  Thank you very much for using Q-Chem.  Have a nice day.  *
