 Q-Chem 5.4, Q-Chem, Inc., Pleasanton, CA (2021)
 Q-Chem 5.4.0 for Intel X86 EM64T Linux

User input:
--------------------------------------------------------------
$molecule
0 1
C	-0.046070	-6.741404	-0.252767
C	-0.272935	-6.155638	-1.538656
C	0.141739	-5.791452	0.814966
C	-0.321083	-4.803786	-1.813042
H	-0.425592	-6.821518	-2.403318
C	0.091779	-4.378638	0.527566
C	-0.138909	-3.838032	-0.782769
C	0.273808	-3.413062	1.556632
C	-0.188483	-2.426473	-1.067868
C	0.226610	-2.059348	1.285436
C	0.000000	-1.478216	0.000000
H	0.379657	-1.394783	2.151019
C	0.390420	-6.187987	2.235891
C	0.522125	-3.798164	2.965540
N	0.562731	-5.170003	3.205600
C	-0.570244	-4.424987	-3.225760
C	-0.438407	-2.036627	-2.489646
N	-0.610438	-3.049156	-3.459662
O	0.455563	-7.353131	2.621768
O	0.683373	-2.986854	3.874608
O	-0.729367	-5.248946	-4.124059
O	-0.508697	-0.878829	-2.896516
C	0.806996	-5.563799	4.596910
H	0.813717	-6.664085	4.641640
H	0.013655	-5.147101	5.246567
H	1.775159	-5.148785	4.936739
C	-0.851572	-2.587487	-4.829729
H	-0.964204	-3.483329	-5.462387
H	-0.003956	-1.964972	-5.173914
H	-1.764390	-1.962932	-4.863360
C	0.000000	0.000000	0.000000
S	0.509686	0.607733	1.580530
C	1.562368	1.862312	0.904911
C	0.641367	0.764613	-0.985400
C	1.489926	1.776040	-0.493528
H	0.489914	0.584081	-2.059934
H	2.056124	2.450920	-1.152593
H	2.128395	2.537007	1.556025
H	0.857128	-7.361589	-0.303328
H	-0.912587	-7.361192	0.007933
H	1.063684	-1.478831	-0.187017
$end

$rem
JOBTYPE		SP
EXCHANGE	HF
CORRELATION	pRIMP2
BASIS		cc-pvtz
METHOD		rimp2
AUX_BASIS	rimp2-cc-pvtz
SOLVENT_METHOD	PCM
PURECART	11111
SYMMETRY	false
MEM_TOTAL	110000
SCF_CONVERGENCE = 6
THRESH=10
GUI = 2
$end

$solvent
dielectric 4.90
$end
--------------------------------------------------------------

             Standard Nuclear Orientation (Angstroms)
    I     Atom           X                Y                Z
 ----------------------------------------------------------------
    1      C      -0.0460700000    -6.7414040000    -0.2527670000
    2      C      -0.2729350000    -6.1556380000    -1.5386560000
    3      C       0.1417390000    -5.7914520000     0.8149660000
    4      C      -0.3210830000    -4.8037860000    -1.8130420000
    5      H      -0.4255920000    -6.8215180000    -2.4033180000
    6      C       0.0917790000    -4.3786380000     0.5275660000
    7      C      -0.1389090000    -3.8380320000    -0.7827690000
    8      C       0.2738080000    -3.4130620000     1.5566320000
    9      C      -0.1884830000    -2.4264730000    -1.0678680000
   10      C       0.2266100000    -2.0593480000     1.2854360000
   11      C       0.0000000000    -1.4782160000     0.0000000000
   12      H       0.3796570000    -1.3947830000     2.1510190000
   13      C       0.3904200000    -6.1879870000     2.2358910000
   14      C       0.5221250000    -3.7981640000     2.9655400000
   15      N       0.5627310000    -5.1700030000     3.2056000000
   16      C      -0.5702440000    -4.4249870000    -3.2257600000
   17      C      -0.4384070000    -2.0366270000    -2.4896460000
   18      N      -0.6104380000    -3.0491560000    -3.4596620000
   19      O       0.4555630000    -7.3531310000     2.6217680000
   20      O       0.6833730000    -2.9868540000     3.8746080000
   21      O      -0.7293670000    -5.2489460000    -4.1240590000
   22      O      -0.5086970000    -0.8788290000    -2.8965160000
   23      C       0.8069960000    -5.5637990000     4.5969100000
   24      H       0.8137170000    -6.6640850000     4.6416400000
   25      H       0.0136550000    -5.1471010000     5.2465670000
   26      H       1.7751590000    -5.1487850000     4.9367390000
   27      C      -0.8515720000    -2.5874870000    -4.8297290000
   28      H      -0.9642040000    -3.4833290000    -5.4623870000
   29      H      -0.0039560000    -1.9649720000    -5.1739140000
   30      H      -1.7643900000    -1.9629320000    -4.8633600000
   31      C       0.0000000000     0.0000000000     0.0000000000
   32      S       0.5096860000     0.6077330000     1.5805300000
   33      C       1.5623680000     1.8623120000     0.9049110000
   34      C       0.6413670000     0.7646130000    -0.9854000000
   35      C       1.4899260000     1.7760400000    -0.4935280000
   36      H       0.4899140000     0.5840810000    -2.0599340000
   37      H       2.0561240000     2.4509200000    -1.1525930000
   38      H       2.1283950000     2.5370070000     1.5560250000
   39      H       0.8571280000    -7.3615890000    -0.3033280000
   40      H      -0.9125870000    -7.3611920000     0.0079330000
   41      H       1.0636840000    -1.4788310000    -0.1870170000
 ----------------------------------------------------------------

   11   -1571.6986309889      5.65e-07  Convergence criterion met
 Total energy in the final basis set =    -1571.6986309889
        RIMP2         total energy =     -1576.3663253339 a.u.

                    Orbital Energies (a.u.)
 --------------------------------------------------------------

 Alpha MOs
 -- Occupied --
-91.9889 -20.5540 -20.5453 -20.5406 -20.5397 -15.6287 -15.6205 -11.3968
-11.3860 -11.3825 -11.3781 -11.3085 -11.3042 -11.3036 -11.3033 -11.2969
-11.2900 -11.2892 -11.2858 -11.2682 -11.2676 -11.2641 -11.2632 -11.2589
-11.2524 -11.2491 -11.2459  -8.9899  -6.6707  -6.6700  -6.6695  -1.4233
 -1.4113  -1.3995  -1.3905  -1.2641  -1.2548  -1.2325  -1.1912  -1.1505
 -1.1135  -1.0856  -1.0476  -0.9971  -0.9891  -0.9876  -0.9551  -0.9479
 -0.8969  -0.8890  -0.8769  -0.8596  -0.7955  -0.7815  -0.7716  -0.7600
 -0.7386  -0.7198  -0.7004  -0.6914  -0.6844  -0.6728  -0.6678  -0.6573
 -0.6487  -0.6476  -0.6370  -0.6310  -0.6306  -0.6289  -0.6234  -0.6045
 -0.5935  -0.5725  -0.5686  -0.5616  -0.5586  -0.5522  -0.5504  -0.5487
 -0.5473  -0.5425  -0.5180  -0.5142  -0.5036  -0.4833  -0.4745  -0.4590
 -0.4562  -0.4506  -0.4420  -0.4348  -0.4151  -0.4073  -0.3585  -0.3476
 -0.3336  -0.2760

          Ground-State Mulliken Net Atomic Charges

     Atom                 Charge (a.u.)
  ----------------------------------------
      1 C                    -0.084055
      2 C                    -0.032506
      3 C                    -0.108848
      4 C                    -0.119556
      5 H                     0.198651
      6 C                     0.020885
      7 C                     0.119686
      8 C                    -0.033166
      9 C                    -0.219027
     10 C                    -0.180825
     11 C                     0.181820
     12 H                     0.190336
     13 C                     0.340303
     14 C                     0.343666
     15 N                    -0.089374
     16 C                     0.357466
     17 C                     0.381772
     18 N                    -0.089444
     19 O                    -0.496057
     20 O                    -0.509406
     21 O                    -0.500805
     22 O                    -0.485957
     23 C                    -0.205275
     24 H                     0.139365
     25 H                     0.109251
     26 H                     0.108868
     27 C                    -0.198605
     28 H                     0.134228
     29 H                     0.111158
     30 H                     0.112419
     31 C                    -0.008773
     32 S                     0.005222
     33 C                    -0.201425
     34 C                    -0.177047
     35 C                    -0.234121
     36 H                     0.223397
     37 H                     0.192024
     38 H                     0.215415
     39 H                     0.137306
     40 H                     0.137585
     41 H                     0.213446
  ----------------------------------------
  Sum of atomic charges =     0.000000

                    Cartesian Multipole Moments
 -----------------------------------------------------------------
    Charge (ESU x 10^10)
                 0.0000
    Dipole Moment (Debye)
         X       2.0810      Y       1.9594      Z      -2.3103
       Tot       3.6753
    Quadrupole Moments (Debye-Ang)
        XX    -158.9153     XY       5.7705     YY    -183.1315
        XZ      -5.3227     YZ      10.2018     ZZ    -187.9154

 Total job time:  308.79s(wall), 9060.08s(cpu)
        *  Thank you very much for using Q-Chem.  Have a nice day.  *
