 Q-Chem 5.4, Q-Chem, Inc., Pleasanton, CA (2021)
 Q-Chem 5.4.0 for Intel X86 EM64T Linux

User input:
--------------------------------------------------------------
$molecule
0 1
C	0.166281	-6.741404	0.195868
C	1.005696	-6.155638	1.196048
C	-0.530233	-5.791452	-0.634911
C	1.184587	-4.803786	1.409599
H	1.570232	-6.821518	1.868538
C	-0.343266	-4.378638	-0.410996
C	0.511683	-3.838032	0.608444
C	-1.015440	-3.413062	-1.211179
C	0.697165	-2.426473	0.830559
C	-0.838968	-2.059348	-0.999915
C	0.000000	-1.478216	0.000000
H	-1.404302	-1.394783	-1.673009
C	-1.456059	-6.187987	-1.741129
C	-1.934944	-3.798164	-2.307170
N	-2.090139	-5.170003	-2.494766
C	2.106725	-4.424987	2.508468
C	1.624494	-2.036627	1.936893
N	2.258486	-3.049156	2.690936
O	-1.705414	-7.353131	-2.042736
O	-2.529122	-2.986854	-3.013823
O	2.693680	-5.248946	3.206857
O	1.888802	-0.878829	2.254108
C	-2.997334	-5.563799	-3.577543
H	-3.025519	-6.664085	-3.612920
H	-2.635109	-5.147101	-4.536833
H	-4.005702	-5.148785	-3.387762
C	3.152347	-2.587487	3.756883
H	3.566218	-3.483329	4.248464
H	2.590383	-1.964972	4.478763
H	3.959687	-1.962932	3.329599
C	0.000000	0.000000	0.000000
S	0.137535	0.781156	1.580530
C	0.421895	2.393994	0.904911
C	0.173134	0.982857	-0.985400
C	0.402294	2.283058	-0.493528
H	0.132237	0.750786	-2.059934
H	0.555196	3.150621	-1.152593
H	0.574741	3.261310	1.556025
H	-0.590631	-7.361589	0.691254
H	0.786357	-7.361192	-0.463164
H	-0.827669	-1.478831	0.693804
$end

$rem
JOBTYPE		SP
EXCHANGE	HF
CORRELATION	pRIMP2
BASIS		cc-pvtz
METHOD		rimp2
AUX_BASIS	rimp2-cc-pvtz
SOLVENT_METHOD	PCM
PURECART	11111
SYMMETRY	false
MEM_TOTAL	110000
SCF_CONVERGENCE = 6
THRESH=10
GUI = 2
$end

$solvent
dielectric 4.90
$end
--------------------------------------------------------------

             Standard Nuclear Orientation (Angstroms)
    I     Atom           X                Y                Z
 ----------------------------------------------------------------
    1      C       0.1662810000    -6.7414040000     0.1958680000
    2      C       1.0056960000    -6.1556380000     1.1960480000
    3      C      -0.5302330000    -5.7914520000    -0.6349110000
    4      C       1.1845870000    -4.8037860000     1.4095990000
    5      H       1.5702320000    -6.8215180000     1.8685380000
    6      C      -0.3432660000    -4.3786380000    -0.4109960000
    7      C       0.5116830000    -3.8380320000     0.6084440000
    8      C      -1.0154400000    -3.4130620000    -1.2111790000
    9      C       0.6971650000    -2.4264730000     0.8305590000
   10      C      -0.8389680000    -2.0593480000    -0.9999150000
   11      C       0.0000000000    -1.4782160000     0.0000000000
   12      H      -1.4043020000    -1.3947830000    -1.6730090000
   13      C      -1.4560590000    -6.1879870000    -1.7411290000
   14      C      -1.9349440000    -3.7981640000    -2.3071700000
   15      N      -2.0901390000    -5.1700030000    -2.4947660000
   16      C       2.1067250000    -4.4249870000     2.5084680000
   17      C       1.6244940000    -2.0366270000     1.9368930000
   18      N       2.2584860000    -3.0491560000     2.6909360000
   19      O      -1.7054140000    -7.3531310000    -2.0427360000
   20      O      -2.5291220000    -2.9868540000    -3.0138230000
   21      O       2.6936800000    -5.2489460000     3.2068570000
   22      O       1.8888020000    -0.8788290000     2.2541080000
   23      C      -2.9973340000    -5.5637990000    -3.5775430000
   24      H      -3.0255190000    -6.6640850000    -3.6129200000
   25      H      -2.6351090000    -5.1471010000    -4.5368330000
   26      H      -4.0057020000    -5.1487850000    -3.3877620000
   27      C       3.1523470000    -2.5874870000     3.7568830000
   28      H       3.5662180000    -3.4833290000     4.2484640000
   29      H       2.5903830000    -1.9649720000     4.4787630000
   30      H       3.9596870000    -1.9629320000     3.3295990000
   31      C       0.0000000000     0.0000000000     0.0000000000
   32      S       0.1375350000     0.7811560000     1.5805300000
   33      C       0.4218950000     2.3939940000     0.9049110000
   34      C       0.1731340000     0.9828570000    -0.9854000000
   35      C       0.4022940000     2.2830580000    -0.4935280000
   36      H       0.1322370000     0.7507860000    -2.0599340000
   37      H       0.5551960000     3.1506210000    -1.1525930000
   38      H       0.5747410000     3.2613100000     1.5560250000
   39      H      -0.5906310000    -7.3615890000     0.6912540000
   40      H       0.7863570000    -7.3611920000    -0.4631640000
   41      H      -0.8276690000    -1.4788310000     0.6938040000
 ----------------------------------------------------------------

   11   -1571.7213562043      5.86e-07  Convergence criterion met
 Total energy in the final basis set =    -1571.7213562043
        RIMP2         total energy =     -1576.3847249575 a.u.

                    Orbital Energies (a.u.)
 --------------------------------------------------------------

 Alpha MOs
 -- Occupied --
-91.9790 -20.5495 -20.5448 -20.5421 -20.5409 -15.6273 -15.6216 -11.3941
-11.3855 -11.3840 -11.3795 -11.3102 -11.3088 -11.3063 -11.3052 -11.2974
-11.2908 -11.2894 -11.2750 -11.2698 -11.2688 -11.2651 -11.2632 -11.2597
-11.2533 -11.2493 -11.2417  -8.9793  -6.6598  -6.6592  -6.6588  -1.4219
 -1.4126  -1.3987  -1.3918  -1.2631  -1.2559  -1.2301  -1.1850  -1.1488
 -1.1146  -1.0862  -1.0475  -0.9937  -0.9883  -0.9784  -0.9553  -0.9494
 -0.8961  -0.8886  -0.8778  -0.8612  -0.7917  -0.7773  -0.7736  -0.7636
 -0.7320  -0.7188  -0.7018  -0.6905  -0.6821  -0.6710  -0.6680  -0.6577
 -0.6482  -0.6420  -0.6388  -0.6326  -0.6314  -0.6286  -0.6233  -0.6051
 -0.5862  -0.5729  -0.5638  -0.5621  -0.5587  -0.5519  -0.5512  -0.5483
 -0.5478  -0.5440  -0.5165  -0.5148  -0.5106  -0.4838  -0.4766  -0.4608
 -0.4555  -0.4457  -0.4406  -0.4343  -0.4122  -0.4078  -0.3537  -0.3341
 -0.3260  -0.2831

          Ground-State Mulliken Net Atomic Charges

     Atom                 Charge (a.u.)
  ----------------------------------------
      1 C                    -0.084801
      2 C                    -0.028968
      3 C                    -0.109803
      4 C                    -0.124102
      5 H                     0.199236
      6 C                     0.018598
      7 C                     0.119452
      8 C                    -0.103971
      9 C                    -0.201647
     10 C                    -0.138261
     11 C                     0.254020
     12 H                     0.195072
     13 C                     0.343397
     14 C                     0.351710
     15 N                    -0.090000
     16 C                     0.356686
     17 C                     0.388377
     18 N                    -0.090614
     19 O                    -0.494132
     20 O                    -0.507425
     21 O                    -0.501553
     22 O                    -0.466206
     23 C                    -0.204611
     24 H                     0.139545
     25 H                     0.109133
     26 H                     0.109185
     27 C                    -0.197439
     28 H                     0.133643
     29 H                     0.111426
     30 H                     0.111900
     31 C                    -0.093302
     32 S                     0.053325
     33 C                    -0.218815
     34 C                    -0.173206
     35 C                    -0.227816
     36 H                     0.188857
     37 H                     0.186335
     38 H                     0.208726
     39 H                     0.138101
     40 H                     0.138227
     41 H                     0.201725
  ----------------------------------------
  Sum of atomic charges =     0.000000

                    Cartesian Multipole Moments
 -----------------------------------------------------------------
    Charge (ESU x 10^10)
                 0.0000
    Dipole Moment (Debye)
         X       0.7186      Y       1.5029      Z       0.9323
       Tot       1.9090
    Quadrupole Moments (Debye-Ang)
        XX    -175.7912     XY      -2.7247     YY    -178.4596
        XZ     -15.2308     YZ      -6.8825     ZZ    -174.7970

 Total job time:  505.21s(wall), 20401.94s(cpu)
        *  Thank you very much for using Q-Chem.  Have a nice day.  *
