 Q-Chem 5.4, Q-Chem, Inc., Pleasanton, CA (2021)
 Q-Chem 5.4.0 for Intel X86 EM64T Linux

User input:
--------------------------------------------------------------
$molecule
0 1
C	-0.195868	-6.741404	0.166281
C	-1.196048	-6.155638	1.005696
C	0.634911	-5.791452	-0.530233
C	-1.409599	-4.803786	1.184587
H	-1.868538	-6.821518	1.570232
C	0.410996	-4.378638	-0.343266
C	-0.608444	-3.838032	0.511683
C	1.211179	-3.413062	-1.015440
C	-0.830559	-2.426473	0.697165
C	0.999915	-2.059348	-0.838968
C	-0.000000	-1.478216	-0.000000
H	1.673009	-1.394783	-1.404302
C	1.741129	-6.187987	-1.456059
C	2.307170	-3.798164	-1.934944
N	2.494766	-5.170003	-2.090139
C	-2.508468	-4.424987	2.106725
C	-1.936893	-2.036627	1.624494
N	-2.690936	-3.049156	2.258486
O	2.042736	-7.353131	-1.705414
O	3.013823	-2.986854	-2.529122
O	-3.206857	-5.248946	2.693680
O	-2.254108	-0.878829	1.888802
C	3.577543	-5.563799	-2.997334
H	3.612920	-6.664085	-3.025519
H	4.536833	-5.147101	-2.635109
H	3.387762	-5.148785	-4.005702
C	-3.756883	-2.587487	3.152347
H	-4.248464	-3.483329	3.566218
H	-4.478763	-1.964972	2.590383
H	-3.329599	-1.962932	3.959687
C	0.000000	0.000000	0.000000
S	-0.000201	0.793171	1.580530
C	-0.000228	2.430885	0.904911
C	-0.000168	0.997990	-0.985400
C	-0.000267	2.318231	-0.493528
H	-0.000145	0.762343	-2.059934
H	-0.000339	3.199164	-1.152593
H	-0.000311	3.311566	1.556025
H	-0.691254	-7.361589	-0.590631
H	0.463164	-7.361192	0.786357
H	-0.693804	-1.478831	-0.827669
$end

$rem
JOBTYPE		SP
EXCHANGE	HF
CORRELATION	pRIMP2
BASIS		cc-pvtz
METHOD		rimp2
AUX_BASIS	rimp2-cc-pvtz
SOLVENT_METHOD	PCM
PURECART	11111
SYMMETRY	false
MEM_TOTAL	110000
SCF_CONVERGENCE = 6
THRESH=10
GUI = 2
$end

$solvent
dielectric 4.90
$end
--------------------------------------------------------------

             Standard Nuclear Orientation (Angstroms)
    I     Atom           X                Y                Z
 ----------------------------------------------------------------
    1      C      -0.1958680000    -6.7414040000     0.1662810000
    2      C      -1.1960480000    -6.1556380000     1.0056960000
    3      C       0.6349110000    -5.7914520000    -0.5302330000
    4      C      -1.4095990000    -4.8037860000     1.1845870000
    5      H      -1.8685380000    -6.8215180000     1.5702320000
    6      C       0.4109960000    -4.3786380000    -0.3432660000
    7      C      -0.6084440000    -3.8380320000     0.5116830000
    8      C       1.2111790000    -3.4130620000    -1.0154400000
    9      C      -0.8305590000    -2.4264730000     0.6971650000
   10      C       0.9999150000    -2.0593480000    -0.8389680000
   11      C       0.0000000000    -1.4782160000     0.0000000000
   12      H       1.6730090000    -1.3947830000    -1.4043020000
   13      C       1.7411290000    -6.1879870000    -1.4560590000
   14      C       2.3071700000    -3.7981640000    -1.9349440000
   15      N       2.4947660000    -5.1700030000    -2.0901390000
   16      C      -2.5084680000    -4.4249870000     2.1067250000
   17      C      -1.9368930000    -2.0366270000     1.6244940000
   18      N      -2.6909360000    -3.0491560000     2.2584860000
   19      O       2.0427360000    -7.3531310000    -1.7054140000
   20      O       3.0138230000    -2.9868540000    -2.5291220000
   21      O      -3.2068570000    -5.2489460000     2.6936800000
   22      O      -2.2541080000    -0.8788290000     1.8888020000
   23      C       3.5775430000    -5.5637990000    -2.9973340000
   24      H       3.6129200000    -6.6640850000    -3.0255190000
   25      H       4.5368330000    -5.1471010000    -2.6351090000
   26      H       3.3877620000    -5.1487850000    -4.0057020000
   27      C      -3.7568830000    -2.5874870000     3.1523470000
   28      H      -4.2484640000    -3.4833290000     3.5662180000
   29      H      -4.4787630000    -1.9649720000     2.5903830000
   30      H      -3.3295990000    -1.9629320000     3.9596870000
   31      C       0.0000000000     0.0000000000     0.0000000000
   32      S      -0.0002010000     0.7931710000     1.5805300000
   33      C      -0.0002280000     2.4308850000     0.9049110000
   34      C      -0.0001680000     0.9979900000    -0.9854000000
   35      C      -0.0002670000     2.3182310000    -0.4935280000
   36      H      -0.0001450000     0.7623430000    -2.0599340000
   37      H      -0.0003390000     3.1991640000    -1.1525930000
   38      H      -0.0003110000     3.3115660000     1.5560250000
   39      H      -0.6912540000    -7.3615890000    -0.5906310000
   40      H       0.4631640000    -7.3611920000     0.7863570000
   41      H      -0.6938040000    -1.4788310000    -0.8276690000
 ----------------------------------------------------------------

   11   -1571.7399972203      5.69e-07  Convergence criterion met
 Total energy in the final basis set =    -1571.7399972203
        RIMP2         total energy =     -1576.3980972044 a.u.

                    Orbital Energies (a.u.)
 --------------------------------------------------------------

 Alpha MOs
 -- Occupied --
-91.9815 -20.5506 -20.5446 -20.5420 -20.5409 -15.6269 -15.6216 -11.3933
-11.3853 -11.3839 -11.3795 -11.3102 -11.3094 -11.3066 -11.3052 -11.2974
-11.2972 -11.2910 -11.2757 -11.2696 -11.2687 -11.2650 -11.2628 -11.2597
-11.2534 -11.2532 -11.2462  -8.9813  -6.6620  -6.6614  -6.6610  -1.4200
 -1.4125  -1.3976  -1.3917  -1.2624  -1.2558  -1.2303  -1.1857  -1.1506
 -1.1147  -1.0868  -1.0474  -0.9943  -0.9881  -0.9803  -0.9553  -0.9504
 -0.8964  -0.8883  -0.8775  -0.8608  -0.7934  -0.7774  -0.7716  -0.7603
 -0.7391  -0.7173  -0.7031  -0.6914  -0.6807  -0.6736  -0.6668  -0.6575
 -0.6475  -0.6460  -0.6364  -0.6328  -0.6313  -0.6287  -0.6213  -0.6048
 -0.5852  -0.5743  -0.5648  -0.5619  -0.5582  -0.5518  -0.5509  -0.5482
 -0.5478  -0.5439  -0.5177  -0.5146  -0.5106  -0.4832  -0.4744  -0.4591
 -0.4565  -0.4494  -0.4428  -0.4348  -0.4129  -0.4078  -0.3537  -0.3443
 -0.3279  -0.2843

          Ground-State Mulliken Net Atomic Charges

     Atom                 Charge (a.u.)
  ----------------------------------------
      1 C                    -0.084776
      2 C                    -0.029287
      3 C                    -0.111109
      4 C                    -0.126516
      5 H                     0.199355
      6 C                     0.023964
      7 C                     0.122408
      8 C                    -0.088469
      9 C                    -0.174017
     10 C                    -0.154728
     11 C                     0.226484
     12 H                     0.194547
     13 C                     0.343349
     14 C                     0.349069
     15 N                    -0.089774
     16 C                     0.357418
     17 C                     0.359589
     18 N                    -0.090174
     19 O                    -0.494352
     20 O                    -0.507749
     21 O                    -0.501713
     22 O                    -0.466866
     23 C                    -0.204650
     24 H                     0.139539
     25 H                     0.109360
     26 H                     0.108911
     27 C                    -0.196998
     28 H                     0.133279
     29 H                     0.111433
     30 H                     0.111882
     31 C                    -0.048822
     32 S                     0.045404
     33 C                    -0.219811
     34 C                    -0.200905
     35 C                    -0.215464
     36 H                     0.189175
     37 H                     0.188370
     38 H                     0.208391
     39 H                     0.137801
     40 H                     0.138324
     41 H                     0.208125
  ----------------------------------------
  Sum of atomic charges =     0.000000

                    Cartesian Multipole Moments
 -----------------------------------------------------------------
    Charge (ESU x 10^10)
                 0.0000
    Dipole Moment (Debye)
         X      -1.5364      Y       1.7039      Z      -0.7530
       Tot       2.4147
    Quadrupole Moments (Debye-Ang)
        XX    -181.9992     XY       7.5691     YY    -177.8788
        XZ      15.9363     YZ      -4.0461     ZZ    -169.8193

 Total job time:  361.54s(wall), 11527.82s(cpu)
        *  Thank you very much for using Q-Chem.  Have a nice day.  *
