 Q-Chem 5.4, Q-Chem, Inc., Pleasanton, CA (2021)
 Q-Chem 5.4.0 for Intel X86 EM64T Linux

User input:
--------------------------------------------------------------
$molecule
0 1
C	0.166281	-6.741404	0.195868
C	1.005696	-6.155638	1.196048
C	-0.530233	-5.791452	-0.634911
C	1.184587	-4.803786	1.409599
H	1.570232	-6.821518	1.868538
C	-0.343266	-4.378638	-0.410996
C	0.511683	-3.838032	0.608444
C	-1.015440	-3.413062	-1.211179
C	0.697165	-2.426473	0.830559
C	-0.838968	-2.059348	-0.999915
C	0.000000	-1.478216	0.000000
H	-1.404302	-1.394783	-1.673009
C	-1.456059	-6.187987	-1.741129
C	-1.934944	-3.798164	-2.307170
N	-2.090139	-5.170003	-2.494766
C	2.106725	-4.424987	2.508468
C	1.624494	-2.036627	1.936893
N	2.258486	-3.049156	2.690936
O	-1.705414	-7.353131	-2.042736
O	-2.529122	-2.986854	-3.013823
O	2.693680	-5.248946	3.206857
O	1.888802	-0.878829	2.254108
C	-2.997334	-5.563799	-3.577543
H	-3.025519	-6.664085	-3.612920
H	-2.635109	-5.147101	-4.536833
H	-4.005702	-5.148785	-3.387762
C	3.152347	-2.587487	3.756883
H	3.566218	-3.483329	4.248464
H	2.590383	-1.964972	4.478763
H	3.959687	-1.962932	3.329599
C	0.000000	0.000000	0.000000
S	0.068929	0.790170	1.580530
C	0.211639	2.421655	0.904911
C	0.086813	0.994207	-0.985400
C	0.201782	2.309433	-0.493528
H	0.066299	0.759454	-2.059934
H	0.278488	3.187020	-1.152593
H	0.288312	3.298992	1.556025
H	-0.590631	-7.361589	0.691254
H	0.786357	-7.361192	-0.463164
H	-0.827669	-1.478831	0.693804
$end

$rem
JOBTYPE		SP
EXCHANGE	HF
CORRELATION	pRIMP2
BASIS		cc-pvtz
METHOD		rimp2
AUX_BASIS	rimp2-cc-pvtz
SOLVENT_METHOD	PCM
PURECART	11111
SYMMETRY	false
MEM_TOTAL	110000
SCF_CONVERGENCE = 6
THRESH=10
GUI = 2
$end

$solvent
dielectric 4.90
$end
--------------------------------------------------------------

             Standard Nuclear Orientation (Angstroms)
    I     Atom           X                Y                Z
 ----------------------------------------------------------------
    1      C       0.1662810000    -6.7414040000     0.1958680000
    2      C       1.0056960000    -6.1556380000     1.1960480000
    3      C      -0.5302330000    -5.7914520000    -0.6349110000
    4      C       1.1845870000    -4.8037860000     1.4095990000
    5      H       1.5702320000    -6.8215180000     1.8685380000
    6      C      -0.3432660000    -4.3786380000    -0.4109960000
    7      C       0.5116830000    -3.8380320000     0.6084440000
    8      C      -1.0154400000    -3.4130620000    -1.2111790000
    9      C       0.6971650000    -2.4264730000     0.8305590000
   10      C      -0.8389680000    -2.0593480000    -0.9999150000
   11      C       0.0000000000    -1.4782160000     0.0000000000
   12      H      -1.4043020000    -1.3947830000    -1.6730090000
   13      C      -1.4560590000    -6.1879870000    -1.7411290000
   14      C      -1.9349440000    -3.7981640000    -2.3071700000
   15      N      -2.0901390000    -5.1700030000    -2.4947660000
   16      C       2.1067250000    -4.4249870000     2.5084680000
   17      C       1.6244940000    -2.0366270000     1.9368930000
   18      N       2.2584860000    -3.0491560000     2.6909360000
   19      O      -1.7054140000    -7.3531310000    -2.0427360000
   20      O      -2.5291220000    -2.9868540000    -3.0138230000
   21      O       2.6936800000    -5.2489460000     3.2068570000
   22      O       1.8888020000    -0.8788290000     2.2541080000
   23      C      -2.9973340000    -5.5637990000    -3.5775430000
   24      H      -3.0255190000    -6.6640850000    -3.6129200000
   25      H      -2.6351090000    -5.1471010000    -4.5368330000
   26      H      -4.0057020000    -5.1487850000    -3.3877620000
   27      C       3.1523470000    -2.5874870000     3.7568830000
   28      H       3.5662180000    -3.4833290000     4.2484640000
   29      H       2.5903830000    -1.9649720000     4.4787630000
   30      H       3.9596870000    -1.9629320000     3.3295990000
   31      C       0.0000000000     0.0000000000     0.0000000000
   32      S       0.0689290000     0.7901700000     1.5805300000
   33      C       0.2116390000     2.4216550000     0.9049110000
   34      C       0.0868130000     0.9942070000    -0.9854000000
   35      C       0.2017820000     2.3094330000    -0.4935280000
   36      H       0.0662990000     0.7594540000    -2.0599340000
   37      H       0.2784880000     3.1870200000    -1.1525930000
   38      H       0.2883120000     3.2989920000     1.5560250000
   39      H      -0.5906310000    -7.3615890000     0.6912540000
   40      H       0.7863570000    -7.3611920000    -0.4631640000
   41      H      -0.8276690000    -1.4788310000     0.6938040000
 ----------------------------------------------------------------

   11   -1571.7275380327      5.84e-07  Convergence criterion met
 Total energy in the final basis set =    -1571.7275380327
        RIMP2         total energy =     -1576.3890221909 a.u.

                    Orbital Energies (a.u.)
 --------------------------------------------------------------

 Alpha MOs
 -- Occupied --
-91.9796 -20.5499 -20.5448 -20.5423 -20.5411 -15.6273 -15.6218 -11.3941
-11.3855 -11.3841 -11.3796 -11.3103 -11.3091 -11.3063 -11.3053 -11.2975
-11.2929 -11.2901 -11.2747 -11.2701 -11.2688 -11.2654 -11.2631 -11.2598
-11.2534 -11.2496 -11.2426  -8.9798  -6.6604  -6.6598  -6.6593  -1.4216
 -1.4127  -1.3986  -1.3919  -1.2630  -1.2560  -1.2303  -1.1854  -1.1492
 -1.1148  -1.0865  -1.0476  -0.9940  -0.9884  -0.9788  -0.9553  -0.9496
 -0.8963  -0.8887  -0.8778  -0.8612  -0.7922  -0.7772  -0.7737  -0.7640
 -0.7321  -0.7186  -0.7019  -0.6907  -0.6819  -0.6713  -0.6681  -0.6577
 -0.6481  -0.6422  -0.6388  -0.6328  -0.6315  -0.6286  -0.6230  -0.6052
 -0.5862  -0.5735  -0.5637  -0.5622  -0.5587  -0.5519  -0.5512  -0.5484
 -0.5475  -0.5441  -0.5170  -0.5150  -0.5107  -0.4839  -0.4770  -0.4610
 -0.4557  -0.4461  -0.4410  -0.4346  -0.4124  -0.4080  -0.3539  -0.3372
 -0.3271  -0.2832

          Ground-State Mulliken Net Atomic Charges

     Atom                 Charge (a.u.)
  ----------------------------------------
      1 C                    -0.084977
      2 C                    -0.028897
      3 C                    -0.109157
      4 C                    -0.124925
      5 H                     0.199325
      6 C                     0.020784
      7 C                     0.119395
      8 C                    -0.107510
      9 C                    -0.199017
     10 C                    -0.133613
     11 C                     0.257433
     12 H                     0.195367
     13 C                     0.343442
     14 C                     0.352114
     15 N                    -0.090079
     16 C                     0.356815
     17 C                     0.380940
     18 N                    -0.090597
     19 O                    -0.493881
     20 O                    -0.507373
     21 O                    -0.501545
     22 O                    -0.467414
     23 C                    -0.204597
     24 H                     0.139569
     25 H                     0.109170
     26 H                     0.109220
     27 C                    -0.197366
     28 H                     0.133568
     29 H                     0.111458
     30 H                     0.111959
     31 C                    -0.089904
     32 S                     0.050987
     33 C                    -0.222407
     34 C                    -0.174936
     35 C                    -0.225869
     36 H                     0.189093
     37 H                     0.186730
     38 H                     0.208934
     39 H                     0.138208
     40 H                     0.138304
     41 H                     0.201254
  ----------------------------------------
  Sum of atomic charges =     0.000000

                    Cartesian Multipole Moments
 -----------------------------------------------------------------
    Charge (ESU x 10^10)
                 0.0000
    Dipole Moment (Debye)
         X       0.5048      Y       1.5009      Z       0.8286
       Tot       1.7872
    Quadrupole Moments (Debye-Ang)
        XX    -176.0661     XY      -3.5445     YY    -177.8289
        XZ     -15.4252     YZ      -6.8426     ZZ    -174.9043

 Total job time:  296.81s(wall), 8942.90s(cpu)
        *  Thank you very much for using Q-Chem.  Have a nice day.  *
