 Q-Chem 5.4, Q-Chem, Inc., Pleasanton, CA (2021)
 Q-Chem 5.4.0 for Intel X86 EM64T Linux

User input:
--------------------------------------------------------------
$molecule
0 1
C	0.043160	-6.741404	-0.253280
C	0.269777	-6.155638	-1.539213
C	-0.145543	-5.791452	0.814295
C	0.318377	-4.803786	-1.813519
H	0.422058	-6.821518	-2.403941
C	-0.094194	-4.378638	0.527140
C	0.137191	-3.838032	-0.783072
C	-0.275104	-3.413062	1.556403
C	0.188116	-2.426473	-1.067932
C	-0.226701	-2.059348	1.285420
C	0.000000	-1.478216	-0.000000
H	-0.378931	-1.394783	2.151147
C	-0.397845	-6.187987	2.234582
C	-0.523637	-3.798164	2.965273
N	-0.567586	-5.170003	3.204744
C	0.567421	-4.424987	-3.226257
C	0.439541	-2.036627	-2.489446
N	0.609650	-3.049156	-3.459801
O	-0.468608	-7.353131	2.619468
O	-0.683034	-2.986854	3.874668
O	0.725131	-5.248946	-4.124806
O	0.512648	-0.878829	-2.895819
C	-0.813908	-5.563799	4.595691
H	-0.822891	-6.664085	4.640022
H	-1.781600	-5.147101	4.934830
H	-0.020360	-5.148785	5.246157
C	0.851649	-2.587487	-4.829716
H	0.962191	-3.483329	-5.462742
H	1.765865	-1.964972	-4.863242
H	0.005383	-1.962932	-5.173521
C	0.000000	0.000000	0.000000
S	0.137535	0.781156	1.580530
C	0.421895	2.393994	0.904911
C	0.173134	0.982857	-0.985400
C	0.402294	2.283058	-0.493528
H	0.132237	0.750786	-2.059934
H	0.555196	3.150621	-1.152593
H	0.574741	3.261310	1.556025
H	0.909181	-7.361589	0.008120
H	-0.860264	-7.361192	-0.304668
H	1.063500	-1.478831	0.188062
$end

$rem
JOBTYPE		SP
EXCHANGE	HF
CORRELATION	pRIMP2
BASIS		cc-pvtz
METHOD		rimp2
AUX_BASIS	rimp2-cc-pvtz
SOLVENT_METHOD	PCM
PURECART	11111
SYMMETRY	false
MEM_TOTAL	110000
SCF_CONVERGENCE = 6
THRESH=10
GUI = 2
$end

$solvent
dielectric 4.90
$end
--------------------------------------------------------------

             Standard Nuclear Orientation (Angstroms)
    I     Atom           X                Y                Z
 ----------------------------------------------------------------
    1      C       0.0431600000    -6.7414040000    -0.2532800000
    2      C       0.2697770000    -6.1556380000    -1.5392130000
    3      C      -0.1455430000    -5.7914520000     0.8142950000
    4      C       0.3183770000    -4.8037860000    -1.8135190000
    5      H       0.4220580000    -6.8215180000    -2.4039410000
    6      C      -0.0941940000    -4.3786380000     0.5271400000
    7      C       0.1371910000    -3.8380320000    -0.7830720000
    8      C      -0.2751040000    -3.4130620000     1.5564030000
    9      C       0.1881160000    -2.4264730000    -1.0679320000
   10      C      -0.2267010000    -2.0593480000     1.2854200000
   11      C       0.0000000000    -1.4782160000     0.0000000000
   12      H      -0.3789310000    -1.3947830000     2.1511470000
   13      C      -0.3978450000    -6.1879870000     2.2345820000
   14      C      -0.5236370000    -3.7981640000     2.9652730000
   15      N      -0.5675860000    -5.1700030000     3.2047440000
   16      C       0.5674210000    -4.4249870000    -3.2262570000
   17      C       0.4395410000    -2.0366270000    -2.4894460000
   18      N       0.6096500000    -3.0491560000    -3.4598010000
   19      O      -0.4686080000    -7.3531310000     2.6194680000
   20      O      -0.6830340000    -2.9868540000     3.8746680000
   21      O       0.7251310000    -5.2489460000    -4.1248060000
   22      O       0.5126480000    -0.8788290000    -2.8958190000
   23      C      -0.8139080000    -5.5637990000     4.5956910000
   24      H      -0.8228910000    -6.6640850000     4.6400220000
   25      H      -1.7816000000    -5.1471010000     4.9348300000
   26      H      -0.0203600000    -5.1487850000     5.2461570000
   27      C       0.8516490000    -2.5874870000    -4.8297160000
   28      H       0.9621910000    -3.4833290000    -5.4627420000
   29      H       1.7658650000    -1.9649720000    -4.8632420000
   30      H       0.0053830000    -1.9629320000    -5.1735210000
   31      C       0.0000000000     0.0000000000     0.0000000000
   32      S       0.1375350000     0.7811560000     1.5805300000
   33      C       0.4218950000     2.3939940000     0.9049110000
   34      C       0.1731340000     0.9828570000    -0.9854000000
   35      C       0.4022940000     2.2830580000    -0.4935280000
   36      H       0.1322370000     0.7507860000    -2.0599340000
   37      H       0.5551960000     3.1506210000    -1.1525930000
   38      H       0.5747410000     3.2613100000     1.5560250000
   39      H       0.9091810000    -7.3615890000     0.0081200000
   40      H      -0.8602640000    -7.3611920000    -0.3046680000
   41      H       1.0635000000    -1.4788310000     0.1880620000
 ----------------------------------------------------------------

   11   -1571.7326512569      5.92e-07  Convergence criterion met
 Total energy in the final basis set =    -1571.7326512569
        RIMP2         total energy =     -1576.3911410644 a.u.

                    Orbital Energies (a.u.)
 --------------------------------------------------------------

 Alpha MOs
 -- Occupied --
-91.9891 -20.5535 -20.5460 -20.5428 -20.5418 -15.6294 -15.6222 -11.3980
-11.3868 -11.3847 -11.3803 -11.3105 -11.3100 -11.3068 -11.3058 -11.2981
-11.2974 -11.2927 -11.2747 -11.2712 -11.2694 -11.2679 -11.2644 -11.2598
-11.2540 -11.2460 -11.2351  -8.9892  -6.6700  -6.6696  -6.6688  -1.4240
 -1.4132  -1.4003  -1.3924  -1.2650  -1.2565  -1.2323  -1.1880  -1.1501
 -1.1158  -1.0878  -1.0492  -0.9958  -0.9890  -0.9812  -0.9562  -0.9494
 -0.8984  -0.8912  -0.8787  -0.8620  -0.7950  -0.7810  -0.7732  -0.7592
 -0.7406  -0.7208  -0.7026  -0.6897  -0.6816  -0.6754  -0.6687  -0.6585
 -0.6495  -0.6476  -0.6388  -0.6326  -0.6320  -0.6298  -0.6243  -0.6057
 -0.5927  -0.5713  -0.5639  -0.5604  -0.5577  -0.5526  -0.5517  -0.5491
 -0.5485  -0.5429  -0.5174  -0.5151  -0.5120  -0.4867  -0.4746  -0.4602
 -0.4582  -0.4498  -0.4433  -0.4368  -0.4161  -0.4086  -0.3576  -0.3495
 -0.3317  -0.2784

          Ground-State Mulliken Net Atomic Charges

     Atom                 Charge (a.u.)
  ----------------------------------------
      1 C                    -0.083567
      2 C                    -0.030911
      3 C                    -0.104915
      4 C                    -0.123659
      5 H                     0.199251
      6 C                     0.024165
      7 C                     0.117903
      8 C                    -0.045209
      9 C                    -0.194811
     10 C                    -0.173893
     11 C                     0.197093
     12 H                     0.181140
     13 C                     0.342496
     14 C                     0.349513
     15 N                    -0.090246
     16 C                     0.358483
     17 C                     0.385269
     18 N                    -0.087311
     19 O                    -0.492810
     20 O                    -0.505761
     21 O                    -0.500325
     22 O                    -0.480148
     23 C                    -0.204629
     24 H                     0.139614
     25 H                     0.109661
     26 H                     0.109560
     27 C                    -0.198673
     28 H                     0.134473
     29 H                     0.111864
     30 H                     0.112174
     31 C                    -0.022467
     32 S                    -0.009370
     33 C                    -0.240048
     34 C                    -0.187164
     35 C                    -0.220259
     36 H                     0.220715
     37 H                     0.189767
     38 H                     0.214394
     39 H                     0.138363
     40 H                     0.138809
     41 H                     0.221471
  ----------------------------------------
  Sum of atomic charges =     0.000000

                    Cartesian Multipole Moments
 -----------------------------------------------------------------
    Charge (ESU x 10^10)
                -0.0000
    Dipole Moment (Debye)
         X       1.3737      Y       1.3003      Z      -2.1319
       Tot       2.8500
    Quadrupole Moments (Debye-Ang)
        XX    -163.1285     XY      -1.0597     YY    -175.8311
        XZ       5.4077     YZ       8.8018     ZZ    -187.5939

 Total job time:  420.68s(wall), 14110.52s(cpu)
        *  Thank you very much for using Q-Chem.  Have a nice day.  *
