 Q-Chem 5.4, Q-Chem, Inc., Pleasanton, CA (2021)
 Q-Chem 5.4.0 for Intel X86 EM64T Linux

User input:
--------------------------------------------------------------
$molecule
0 1
C	-0.089263	-6.741404	-0.240927
C	-0.535973	-6.155638	-1.467886
C	0.281103	-5.791452	0.777972
C	-0.631036	-4.803786	-1.729742
H	-0.836458	-6.821518	-2.292903
C	0.181995	-4.378638	0.503614
C	-0.272725	-3.838032	-0.746756
C	0.539954	-3.413062	1.485437
C	-0.371053	-2.426473	-1.018915
C	0.446381	-2.059348	1.226557
C	-0.000000	-1.478216	-0.000000
H	0.747410	-1.394783	2.052413
C	0.772747	-6.187987	2.134128
C	1.029154	-3.798164	2.829820
N	1.110828	-5.170003	3.059182
C	-1.121728	-4.424987	-3.077731
C	-0.864069	-2.036627	-2.375694
N	-1.201928	-3.049156	-3.301101
O	0.903908	-7.353131	2.502830
O	1.345809	-2.986854	3.697078
O	-1.434422	-5.248946	-3.934752
O	-1.003943	-0.878829	-2.764177
C	1.592981	-5.563799	4.386939
H	1.607367	-6.664085	4.429822
H	0.924504	-5.147101	5.164489
H	2.605446	-5.148785	4.553486
C	-1.677308	-2.587487	-4.608481
H	-1.898089	-3.483329	-5.211969
H	-0.902337	-1.964972	-5.094624
H	-2.582098	-1.962932	-4.483092
C	0.000000	0.000000	0.000000
S	0.335026	0.718942	1.580530
C	1.027130	2.203226	0.904911
C	0.421617	0.904557	-0.985400
C	0.979485	2.101144	-0.493528
H	0.322049	0.690978	-2.059934
H	1.351718	2.899571	-1.152593
H	1.399246	3.001430	1.556025
H	0.791434	-7.361589	-0.447559
H	-0.897345	-7.361192	0.166282
H	1.015049	-1.478831	-0.368883
$end

$rem
JOBTYPE		SP
EXCHANGE	HF
CORRELATION	pRIMP2
BASIS		cc-pvtz
METHOD		rimp2
AUX_BASIS	rimp2-cc-pvtz
SOLVENT_METHOD	PCM
PURECART	11111
SYMMETRY	false
MEM_TOTAL	110000
SCF_CONVERGENCE = 6
THRESH=10
GUI = 2
$end

$solvent
dielectric 4.90
$end
--------------------------------------------------------------

             Standard Nuclear Orientation (Angstroms)
    I     Atom           X                Y                Z
 ----------------------------------------------------------------
    1      C      -0.0892630000    -6.7414040000    -0.2409270000
    2      C      -0.5359730000    -6.1556380000    -1.4678860000
    3      C       0.2811030000    -5.7914520000     0.7779720000
    4      C      -0.6310360000    -4.8037860000    -1.7297420000
    5      H      -0.8364580000    -6.8215180000    -2.2929030000
    6      C       0.1819950000    -4.3786380000     0.5036140000
    7      C      -0.2727250000    -3.8380320000    -0.7467560000
    8      C       0.5399540000    -3.4130620000     1.4854370000
    9      C      -0.3710530000    -2.4264730000    -1.0189150000
   10      C       0.4463810000    -2.0593480000     1.2265570000
   11      C       0.0000000000    -1.4782160000     0.0000000000
   12      H       0.7474100000    -1.3947830000     2.0524130000
   13      C       0.7727470000    -6.1879870000     2.1341280000
   14      C       1.0291540000    -3.7981640000     2.8298200000
   15      N       1.1108280000    -5.1700030000     3.0591820000
   16      C      -1.1217280000    -4.4249870000    -3.0777310000
   17      C      -0.8640690000    -2.0366270000    -2.3756940000
   18      N      -1.2019280000    -3.0491560000    -3.3011010000
   19      O       0.9039080000    -7.3531310000     2.5028300000
   20      O       1.3458090000    -2.9868540000     3.6970780000
   21      O      -1.4344220000    -5.2489460000    -3.9347520000
   22      O      -1.0039430000    -0.8788290000    -2.7641770000
   23      C       1.5929810000    -5.5637990000     4.3869390000
   24      H       1.6073670000    -6.6640850000     4.4298220000
   25      H       0.9245040000    -5.1471010000     5.1644890000
   26      H       2.6054460000    -5.1487850000     4.5534860000
   27      C      -1.6773080000    -2.5874870000    -4.6084810000
   28      H      -1.8980890000    -3.4833290000    -5.2119690000
   29      H      -0.9023370000    -1.9649720000    -5.0946240000
   30      H      -2.5820980000    -1.9629320000    -4.4830920000
   31      C       0.0000000000     0.0000000000     0.0000000000
   32      S       0.3350260000     0.7189420000     1.5805300000
   33      C       1.0271300000     2.2032260000     0.9049110000
   34      C       0.4216170000     0.9045570000    -0.9854000000
   35      C       0.9794850000     2.1011440000    -0.4935280000
   36      H       0.3220490000     0.6909780000    -2.0599340000
   37      H       1.3517180000     2.8995710000    -1.1525930000
   38      H       1.3992460000     3.0014300000     1.5560250000
   39      H       0.7914340000    -7.3615890000    -0.4475590000
   40      H      -0.8973450000    -7.3611920000     0.1662820000
   41      H       1.0150490000    -1.4788310000    -0.3688830000
 ----------------------------------------------------------------

   11   -1571.7260473921      5.83e-07  Convergence criterion met
 Total energy in the final basis set =    -1571.7260473921
        RIMP2         total energy =     -1576.3872860588 a.u.

                    Orbital Energies (a.u.)
 --------------------------------------------------------------

 Alpha MOs
 -- Occupied --
-91.9904 -20.5537 -20.5453 -20.5416 -20.5406 -15.6283 -15.6213 -11.3959
-11.3860 -11.3834 -11.3791 -11.3093 -11.3061 -11.3052 -11.3045 -11.2973
-11.2972 -11.2916 -11.2789 -11.2690 -11.2686 -11.2652 -11.2639 -11.2593
-11.2530 -11.2491 -11.2448  -8.9907  -6.6715  -6.6709  -6.6704  -1.4220
 -1.4122  -1.3989  -1.3913  -1.2636  -1.2555  -1.2319  -1.1892  -1.1510
 -1.1144  -1.0867  -1.0479  -0.9962  -0.9883  -0.9856  -0.9554  -0.9491
 -0.8974  -0.8895  -0.8773  -0.8603  -0.7957  -0.7809  -0.7717  -0.7594
 -0.7393  -0.7170  -0.7013  -0.6915  -0.6838  -0.6727  -0.6679  -0.6576
 -0.6483  -0.6470  -0.6376  -0.6317  -0.6311  -0.6287  -0.6232  -0.6049
 -0.5918  -0.5732  -0.5657  -0.5610  -0.5586  -0.5522  -0.5505  -0.5495
 -0.5478  -0.5431  -0.5175  -0.5145  -0.5089  -0.4863  -0.4757  -0.4616
 -0.4574  -0.4515  -0.4429  -0.4352  -0.4147  -0.4078  -0.3564  -0.3504
 -0.3325  -0.2782

          Ground-State Mulliken Net Atomic Charges

     Atom                 Charge (a.u.)
  ----------------------------------------
      1 C                    -0.084410
      2 C                    -0.031226
      3 C                    -0.107320
      4 C                    -0.123647
      5 H                     0.199061
      6 C                     0.022678
      7 C                     0.120696
      8 C                    -0.045167
      9 C                    -0.200636
     10 C                    -0.177838
     11 C                     0.167761
     12 H                     0.186441
     13 C                     0.340994
     14 C                     0.345653
     15 N                    -0.089846
     16 C                     0.357671
     17 C                     0.369395
     18 N                    -0.090058
     19 O                    -0.494719
     20 O                    -0.507814
     21 O                    -0.500953
     22 O                    -0.481202
     23 C                    -0.204998
     24 H                     0.139415
     25 H                     0.109521
     26 H                     0.109116
     27 C                    -0.198235
     28 H                     0.133987
     29 H                     0.111088
     30 H                     0.112339
     31 C                     0.016003
     32 S                     0.000299
     33 C                    -0.206695
     34 C                    -0.167896
     35 C                    -0.233258
     36 H                     0.204733
     37 H                     0.190719
     38 H                     0.214057
     39 H                     0.137708
     40 H                     0.137954
     41 H                     0.218628
  ----------------------------------------
  Sum of atomic charges =     0.000000

                    Cartesian Multipole Moments
 -----------------------------------------------------------------
    Charge (ESU x 10^10)
                 0.0000
    Dipole Moment (Debye)
         X       1.2873      Y       1.7660      Z      -2.2750
       Tot       3.1546
    Quadrupole Moments (Debye-Ang)
        XX    -164.4625     XY       5.8241     YY    -179.4892
        XZ     -10.4622     YZ       9.5334     ZZ    -185.2260

 Total job time:  312.50s(wall), 9403.69s(cpu)
        *  Thank you very much for using Q-Chem.  Have a nice day.  *
