 Q-Chem 5.4, Q-Chem, Inc., Pleasanton, CA (2021)
 Q-Chem 5.4.0 for Intel X86 EM64T Linux

User input:
--------------------------------------------------------------
$molecule
0 1
C	0.164018	-6.741404	-0.197767
C	1.003240	-6.155638	-1.198109
C	-0.533192	-5.791452	0.632428
C	1.182482	-4.803786	-1.411364
H	1.567483	-6.821518	-1.870845
C	-0.345145	-4.378638	0.409419
C	0.510347	-3.838032	-0.609565
C	-1.016449	-3.413062	1.210332
C	0.696879	-2.426473	-0.830799
C	-0.839039	-2.059348	0.999856
C	-0.000000	-1.478216	-0.000000
H	-1.403737	-1.394783	1.673483
C	-1.461835	-6.187987	1.736282
C	-1.936119	-3.798164	2.306183
N	-2.093916	-5.170003	2.491597
C	2.104529	-4.424987	-2.510310
C	1.625377	-2.036627	-1.936153
N	2.257873	-3.049156	-2.691451
O	-1.715561	-7.353131	2.034222
O	-2.528858	-2.986854	3.014044
O	2.690385	-5.248946	-3.209622
O	1.891876	-0.878829	-2.251529
C	-3.002711	-5.563799	3.573032
H	-3.032655	-6.664085	3.606932
H	-4.010326	-5.147101	3.382888
H	-2.640711	-5.148785	4.533125
C	3.152408	-2.587487	-3.756832
H	3.564653	-3.483329	-4.249778
H	3.960905	-1.964972	-3.328759
H	2.591422	-1.962932	-4.477709
C	0.000000	0.000000	0.000000
S	0.271091	0.745405	1.580530
C	0.831198	2.284363	0.904911
C	0.341175	0.937861	-0.985400
C	0.792631	2.178516	-0.493528
H	0.260601	0.716417	-2.059934
H	1.093860	3.006347	-1.152593
H	1.132330	3.111961	1.556025
H	0.783314	-7.361589	0.461623
H	-0.592677	-7.361192	-0.693983
H	0.826987	-1.478831	0.694617
$end

$rem
JOBTYPE		SP
EXCHANGE	HF
CORRELATION	pRIMP2
BASIS		cc-pvtz
METHOD		rimp2
AUX_BASIS	rimp2-cc-pvtz
SOLVENT_METHOD	PCM
PURECART	11111
SYMMETRY	false
MEM_TOTAL	110000
SCF_CONVERGENCE = 6
THRESH=10
GUI = 2
$end

$solvent
dielectric 4.90
$end
--------------------------------------------------------------

             Standard Nuclear Orientation (Angstroms)
    I     Atom           X                Y                Z
 ----------------------------------------------------------------
    1      C       0.1640180000    -6.7414040000    -0.1977670000
    2      C       1.0032400000    -6.1556380000    -1.1981090000
    3      C      -0.5331920000    -5.7914520000     0.6324280000
    4      C       1.1824820000    -4.8037860000    -1.4113640000
    5      H       1.5674830000    -6.8215180000    -1.8708450000
    6      C      -0.3451450000    -4.3786380000     0.4094190000
    7      C       0.5103470000    -3.8380320000    -0.6095650000
    8      C      -1.0164490000    -3.4130620000     1.2103320000
    9      C       0.6968790000    -2.4264730000    -0.8307990000
   10      C      -0.8390390000    -2.0593480000     0.9998560000
   11      C       0.0000000000    -1.4782160000     0.0000000000
   12      H      -1.4037370000    -1.3947830000     1.6734830000
   13      C      -1.4618350000    -6.1879870000     1.7362820000
   14      C      -1.9361190000    -3.7981640000     2.3061830000
   15      N      -2.0939160000    -5.1700030000     2.4915970000
   16      C       2.1045290000    -4.4249870000    -2.5103100000
   17      C       1.6253770000    -2.0366270000    -1.9361530000
   18      N       2.2578730000    -3.0491560000    -2.6914510000
   19      O      -1.7155610000    -7.3531310000     2.0342220000
   20      O      -2.5288580000    -2.9868540000     3.0140440000
   21      O       2.6903850000    -5.2489460000    -3.2096220000
   22      O       1.8918760000    -0.8788290000    -2.2515290000
   23      C      -3.0027110000    -5.5637990000     3.5730320000
   24      H      -3.0326550000    -6.6640850000     3.6069320000
   25      H      -4.0103260000    -5.1471010000     3.3828880000
   26      H      -2.6407110000    -5.1487850000     4.5331250000
   27      C       3.1524080000    -2.5874870000    -3.7568320000
   28      H       3.5646530000    -3.4833290000    -4.2497780000
   29      H       3.9609050000    -1.9649720000    -3.3287590000
   30      H       2.5914220000    -1.9629320000    -4.4777090000
   31      C       0.0000000000     0.0000000000     0.0000000000
   32      S       0.2710910000     0.7454050000     1.5805300000
   33      C       0.8311980000     2.2843630000     0.9049110000
   34      C       0.3411750000     0.9378610000    -0.9854000000
   35      C       0.7926310000     2.1785160000    -0.4935280000
   36      H       0.2606010000     0.7164170000    -2.0599340000
   37      H       1.0938600000     3.0063470000    -1.1525930000
   38      H       1.1323300000     3.1119610000     1.5560250000
   39      H       0.7833140000    -7.3615890000     0.4616230000
   40      H      -0.5926770000    -7.3611920000    -0.6939830000
   41      H       0.8269870000    -1.4788310000     0.6946170000
 ----------------------------------------------------------------

   11   -1571.7331792715      5.76e-07  Convergence criterion met
 Total energy in the final basis set =    -1571.7331792715
        RIMP2         total energy =     -1576.3910348055 a.u.

                    Orbital Energies (a.u.)
 --------------------------------------------------------------

 Alpha MOs
 -- Occupied --
-91.9892 -20.5506 -20.5448 -20.5417 -20.5407 -15.6273 -15.6212 -11.3940
-11.3854 -11.3836 -11.3792 -11.3085 -11.3079 -11.3055 -11.3047 -11.2966
-11.2902 -11.2888 -11.2821 -11.2692 -11.2682 -11.2656 -11.2635 -11.2593
-11.2528 -11.2493 -11.2482  -8.9893  -6.6702  -6.6697  -6.6691  -1.4203
 -1.4122  -1.3978  -1.3914  -1.2626  -1.2555  -1.2305  -1.1874  -1.1513
 -1.1141  -1.0866  -1.0471  -0.9957  -0.9880  -0.9827  -0.9552  -0.9498
 -0.8963  -0.8878  -0.8772  -0.8605  -0.7931  -0.7769  -0.7712  -0.7645
 -0.7409  -0.7161  -0.7025  -0.6898  -0.6776  -0.6733  -0.6671  -0.6574
 -0.6474  -0.6453  -0.6380  -0.6315  -0.6309  -0.6276  -0.6227  -0.6050
 -0.5874  -0.5723  -0.5657  -0.5600  -0.5572  -0.5518  -0.5498  -0.5478
 -0.5477  -0.5433  -0.5211  -0.5149  -0.5085  -0.4833  -0.4748  -0.4659
 -0.4574  -0.4511  -0.4429  -0.4349  -0.4137  -0.4076  -0.3539  -0.3514
 -0.3295  -0.2811

          Ground-State Mulliken Net Atomic Charges

     Atom                 Charge (a.u.)
  ----------------------------------------
      1 C                    -0.085229
      2 C                    -0.029719
      3 C                    -0.111892
      4 C                    -0.127227
      5 H                     0.198720
      6 C                     0.017495
      7 C                     0.127059
      8 C                    -0.064134
      9 C                    -0.166463
     10 C                    -0.182157
     11 C                     0.232370
     12 H                     0.187253
     13 C                     0.344279
     14 C                     0.347906
     15 N                    -0.089683
     16 C                     0.357727
     17 C                     0.370487
     18 N                    -0.088311
     19 O                    -0.494323
     20 O                    -0.506412
     21 O                    -0.501663
     22 O                    -0.474928
     23 C                    -0.204716
     24 H                     0.139415
     25 H                     0.109285
     26 H                     0.109176
     27 C                    -0.197795
     28 H                     0.133805
     29 H                     0.111555
     30 H                     0.111087
     31 C                    -0.070540
     32 S                     0.005884
     33 C                    -0.221540
     34 C                    -0.159219
     35 C                    -0.198486
     36 H                     0.186158
     37 H                     0.190891
     38 H                     0.212860
     39 H                     0.137529
     40 H                     0.137921
     41 H                     0.205576
  ----------------------------------------
  Sum of atomic charges =     0.000000

                    Cartesian Multipole Moments
 -----------------------------------------------------------------
    Charge (ESU x 10^10)
                 0.0000
    Dipole Moment (Debye)
         X       2.0556      Y       2.1110      Z      -1.5143
       Tot       3.3128
    Quadrupole Moments (Debye-Ang)
        XX    -174.8489     XY      -2.9261     YY    -178.8263
        XZ      16.3777     YZ       6.3540     ZZ    -175.8381

 Total job time:  287.04s(wall), 8867.53s(cpu)
        *  Thank you very much for using Q-Chem.  Have a nice day.  *
