 Q-Chem 5.4, Q-Chem, Inc., Pleasanton, CA (2021)
 Q-Chem 5.4.0 for Intel X86 EM64T Linux

User input:
--------------------------------------------------------------
$molecule
0 1
C	-0.221766	-6.741404	0.129743
C	-1.352515	-6.155638	0.782726
C	0.717339	-5.791452	-0.411926
C	-1.593885	-4.803786	0.921816
H	-2.112819	-6.821518	1.221908
C	0.464360	-4.378638	-0.266682
C	-0.688053	-3.838032	0.398255
C	1.369108	-3.413062	-0.789694
C	-0.939002	-2.426473	0.542349
C	1.130409	-2.059348	-0.652589
C	-0.000000	-1.478216	-0.000000
H	1.891446	-1.394783	-1.092453
C	1.967519	-6.187987	-1.131595
C	2.608118	-3.798164	-1.504912
N	2.819813	-5.170003	-1.625174
C	-2.836188	-4.424987	1.639129
C	-2.189558	-2.036627	1.263477
N	-3.042237	-3.049156	1.756898
O	2.307845	-7.353131	-1.324787
O	3.407213	-2.986854	-1.967354
O	-3.625890	-5.248946	2.095892
O	-2.547850	-0.878829	1.468685
C	4.043674	-5.563799	-2.330564
H	4.083407	-6.664085	-2.352178
H	4.925490	-5.147101	-1.807263
H	4.031877	-5.148785	-3.356568
C	-4.247206	-2.587487	2.452080
H	-4.803187	-3.483329	2.774302
H	-4.860536	-1.964972	1.773301
H	-3.966607	-1.962932	3.321351
C	0.000000	0.000000	0.000000
S	0.271091	0.745405	1.580530
C	0.831198	2.284363	0.904911
C	0.341175	0.937861	-0.985400
C	0.792631	2.178516	-0.493528
H	0.260601	0.716417	-2.059934
H	1.093860	3.006347	-1.152593
H	1.132330	3.111961	1.556025
H	-0.578191	-7.361589	-0.701693
H	0.319578	-7.361192	0.854838
H	-0.539540	-1.478831	-0.935572
$end

$rem
JOBTYPE		SP
EXCHANGE	HF
CORRELATION	pRIMP2
BASIS		cc-pvtz
METHOD		rimp2
AUX_BASIS	rimp2-cc-pvtz
SOLVENT_METHOD	PCM
PURECART	11111
SYMMETRY	false
MEM_TOTAL	110000
SCF_CONVERGENCE = 6
THRESH=10
GUI = 2
$end

$solvent
dielectric 4.90
$end
--------------------------------------------------------------

             Standard Nuclear Orientation (Angstroms)
    I     Atom           X                Y                Z
 ----------------------------------------------------------------
    1      C      -0.2217660000    -6.7414040000     0.1297430000
    2      C      -1.3525150000    -6.1556380000     0.7827260000
    3      C       0.7173390000    -5.7914520000    -0.4119260000
    4      C      -1.5938850000    -4.8037860000     0.9218160000
    5      H      -2.1128190000    -6.8215180000     1.2219080000
    6      C       0.4643600000    -4.3786380000    -0.2666820000
    7      C      -0.6880530000    -3.8380320000     0.3982550000
    8      C       1.3691080000    -3.4130620000    -0.7896940000
    9      C      -0.9390020000    -2.4264730000     0.5423490000
   10      C       1.1304090000    -2.0593480000    -0.6525890000
   11      C       0.0000000000    -1.4782160000     0.0000000000
   12      H       1.8914460000    -1.3947830000    -1.0924530000
   13      C       1.9675190000    -6.1879870000    -1.1315950000
   14      C       2.6081180000    -3.7981640000    -1.5049120000
   15      N       2.8198130000    -5.1700030000    -1.6251740000
   16      C      -2.8361880000    -4.4249870000     1.6391290000
   17      C      -2.1895580000    -2.0366270000     1.2634770000
   18      N      -3.0422370000    -3.0491560000     1.7568980000
   19      O       2.3078450000    -7.3531310000    -1.3247870000
   20      O       3.4072130000    -2.9868540000    -1.9673540000
   21      O      -3.6258900000    -5.2489460000     2.0958920000
   22      O      -2.5478500000    -0.8788290000     1.4686850000
   23      C       4.0436740000    -5.5637990000    -2.3305640000
   24      H       4.0834070000    -6.6640850000    -2.3521780000
   25      H       4.9254900000    -5.1471010000    -1.8072630000
   26      H       4.0318770000    -5.1487850000    -3.3565680000
   27      C      -4.2472060000    -2.5874870000     2.4520800000
   28      H      -4.8031870000    -3.4833290000     2.7743020000
   29      H      -4.8605360000    -1.9649720000     1.7733010000
   30      H      -3.9666070000    -1.9629320000     3.3213510000
   31      C       0.0000000000     0.0000000000     0.0000000000
   32      S       0.2710910000     0.7454050000     1.5805300000
   33      C       0.8311980000     2.2843630000     0.9049110000
   34      C       0.3411750000     0.9378610000    -0.9854000000
   35      C       0.7926310000     2.1785160000    -0.4935280000
   36      H       0.2606010000     0.7164170000    -2.0599340000
   37      H       1.0938600000     3.0063470000    -1.1525930000
   38      H       1.1323300000     3.1119610000     1.5560250000
   39      H      -0.5781910000    -7.3615890000    -0.7016930000
   40      H       0.3195780000    -7.3611920000     0.8548380000
   41      H      -0.5395400000    -1.4788310000    -0.9355720000
 ----------------------------------------------------------------

   11   -1571.7421923284      5.55e-07  Convergence criterion met
 Total energy in the final basis set =    -1571.7421923284
        RIMP2         total energy =     -1576.3988961544 a.u.

                    Orbital Energies (a.u.)
 --------------------------------------------------------------

 Alpha MOs
 -- Occupied --
-91.9852 -20.5525 -20.5445 -20.5416 -20.5406 -15.6269 -15.6214 -11.3936
-11.3852 -11.3835 -11.3793 -11.3092 -11.3091 -11.3054 -11.3048 -11.2968
-11.2966 -11.2902 -11.2814 -11.2689 -11.2682 -11.2645 -11.2627 -11.2595
-11.2581 -11.2528 -11.2502  -8.9850  -6.6658  -6.6652  -6.6647  -1.4198
 -1.4123  -1.3974  -1.3914  -1.2622  -1.2555  -1.2302  -1.1869  -1.1523
 -1.1143  -1.0865  -1.0469  -0.9956  -0.9879  -0.9839  -0.9552  -0.9507
 -0.8966  -0.8880  -0.8768  -0.8599  -0.7941  -0.7768  -0.7712  -0.7629
 -0.7404  -0.7170  -0.7040  -0.6918  -0.6810  -0.6728  -0.6668  -0.6573
 -0.6472  -0.6448  -0.6365  -0.6330  -0.6309  -0.6278  -0.6214  -0.6049
 -0.5846  -0.5755  -0.5679  -0.5616  -0.5577  -0.5514  -0.5507  -0.5479
 -0.5465  -0.5438  -0.5220  -0.5135  -0.5090  -0.4818  -0.4746  -0.4612
 -0.4570  -0.4511  -0.4428  -0.4347  -0.4133  -0.4075  -0.3533  -0.3518
 -0.3294  -0.2864

          Ground-State Mulliken Net Atomic Charges

     Atom                 Charge (a.u.)
  ----------------------------------------
      1 C                    -0.084225
      2 C                    -0.030661
      3 C                    -0.111531
      4 C                    -0.122863
      5 H                     0.199084
      6 C                     0.024430
      7 C                     0.118059
      8 C                    -0.091044
      9 C                    -0.163587
     10 C                    -0.129118
     11 C                     0.173690
     12 H                     0.198919
     13 C                     0.342532
     14 C                     0.346055
     15 N                    -0.089812
     16 C                     0.356939
     17 C                     0.341197
     18 N                    -0.091372
     19 O                    -0.494650
     20 O                    -0.507741
     21 O                    -0.501321
     22 O                    -0.470403
     23 C                    -0.204856
     24 H                     0.139527
     25 H                     0.109341
     26 H                     0.108838
     27 C                    -0.197136
     28 H                     0.133186
     29 H                     0.111559
     30 H                     0.112036
     31 C                     0.018451
     32 S                     0.026369
     33 C                    -0.211817
     34 C                    -0.234840
     35 C                    -0.196361
     36 H                     0.191604
     37 H                     0.191404
     38 H                     0.209706
     39 H                     0.137407
     40 H                     0.137972
     41 H                     0.205033
  ----------------------------------------
  Sum of atomic charges =     0.000000

                    Cartesian Multipole Moments
 -----------------------------------------------------------------
    Charge (ESU x 10^10)
                 0.0000
    Dipole Moment (Debye)
         X      -0.6346      Y       2.0465      Z      -1.2245
       Tot       2.4678
    Quadrupole Moments (Debye-Ang)
        XX    -186.2927     XY      11.9927     YY    -178.9463
        XZ      14.5756     YZ      -2.7348     ZZ    -164.6380

 Total job time:  289.32s(wall), 8884.71s(cpu)
        *  Thank you very much for using Q-Chem.  Have a nice day.  *
