 Q-Chem 5.4, Q-Chem, Inc., Pleasanton, CA (2021)
 Q-Chem 5.4.0 for Intel X86 EM64T Linux

User input:
--------------------------------------------------------------
$molecule
0 1
C	-0.223244	-6.741404	-0.127184
C	-1.354118	-6.155638	-0.779949
C	0.715408	-5.791452	0.415271
C	-1.595259	-4.803786	-0.919437
H	-2.114613	-6.821518	-1.218801
C	0.463133	-4.378638	0.268806
C	-0.688925	-3.838032	-0.396744
C	1.368449	-3.413062	0.790835
C	-0.939189	-2.426473	-0.542026
C	1.130363	-2.059348	0.652669
C	-0.000000	-1.478216	-0.000000
H	1.891815	-1.394783	1.091814
C	1.963749	-6.187987	1.138124
C	2.607351	-3.798164	1.506241
N	2.817348	-5.170003	1.629443
C	-2.837621	-4.424987	-1.636646
C	-2.188982	-2.036627	-1.264474
N	-3.042637	-3.049156	-1.756205
O	2.301222	-7.353131	1.336258
O	3.407386	-2.986854	1.967056
O	-3.628041	-5.248946	-2.092167
O	-2.545844	-0.878829	-1.472160
C	4.040164	-5.563799	2.336642
H	4.078749	-6.664085	2.360245
H	4.027880	-5.147101	3.361968
H	4.922811	-5.148785	1.813424
C	-4.247167	-2.587487	-2.452149
H	-4.804209	-3.483329	-2.772531
H	-3.965991	-1.964972	-3.322697
H	-4.859678	-1.962932	-1.774507
C	0.000000	0.000000	0.000000
S	0.686805	0.396760	1.580530
C	2.105095	1.215640	0.904911
C	0.864201	0.499140	-0.985400
C	2.007514	1.159347	-0.493528
H	0.660136	0.381296	-2.059934
H	2.770388	1.599875	-1.152593
H	2.867745	1.656053	1.556025
H	0.318588	-7.361589	-0.851574
H	-0.580522	-7.361192	0.704181
H	0.540459	-1.478831	-0.935042
$end

$rem
JOBTYPE		SP
EXCHANGE	HF
CORRELATION	pRIMP2
BASIS		cc-pvtz
METHOD		rimp2
AUX_BASIS	rimp2-cc-pvtz
SOLVENT_METHOD	PCM
PURECART	11111
SYMMETRY	false
MEM_TOTAL	110000
SCF_CONVERGENCE = 6
THRESH=10
GUI = 2
$end

$solvent
dielectric 4.90
$end
--------------------------------------------------------------

             Standard Nuclear Orientation (Angstroms)
    I     Atom           X                Y                Z
 ----------------------------------------------------------------
    1      C      -0.2232440000    -6.7414040000    -0.1271840000
    2      C      -1.3541180000    -6.1556380000    -0.7799490000
    3      C       0.7154080000    -5.7914520000     0.4152710000
    4      C      -1.5952590000    -4.8037860000    -0.9194370000
    5      H      -2.1146130000    -6.8215180000    -1.2188010000
    6      C       0.4631330000    -4.3786380000     0.2688060000
    7      C      -0.6889250000    -3.8380320000    -0.3967440000
    8      C       1.3684490000    -3.4130620000     0.7908350000
    9      C      -0.9391890000    -2.4264730000    -0.5420260000
   10      C       1.1303630000    -2.0593480000     0.6526690000
   11      C       0.0000000000    -1.4782160000     0.0000000000
   12      H       1.8918150000    -1.3947830000     1.0918140000
   13      C       1.9637490000    -6.1879870000     1.1381240000
   14      C       2.6073510000    -3.7981640000     1.5062410000
   15      N       2.8173480000    -5.1700030000     1.6294430000
   16      C      -2.8376210000    -4.4249870000    -1.6366460000
   17      C      -2.1889820000    -2.0366270000    -1.2644740000
   18      N      -3.0426370000    -3.0491560000    -1.7562050000
   19      O       2.3012220000    -7.3531310000     1.3362580000
   20      O       3.4073860000    -2.9868540000     1.9670560000
   21      O      -3.6280410000    -5.2489460000    -2.0921670000
   22      O      -2.5458440000    -0.8788290000    -1.4721600000
   23      C       4.0401640000    -5.5637990000     2.3366420000
   24      H       4.0787490000    -6.6640850000     2.3602450000
   25      H       4.0278800000    -5.1471010000     3.3619680000
   26      H       4.9228110000    -5.1487850000     1.8134240000
   27      C      -4.2471670000    -2.5874870000    -2.4521490000
   28      H      -4.8042090000    -3.4833290000    -2.7725310000
   29      H      -3.9659910000    -1.9649720000    -3.3226970000
   30      H      -4.8596780000    -1.9629320000    -1.7745070000
   31      C       0.0000000000     0.0000000000     0.0000000000
   32      S       0.6868050000     0.3967600000     1.5805300000
   33      C       2.1050950000     1.2156400000     0.9049110000
   34      C       0.8642010000     0.4991400000    -0.9854000000
   35      C       2.0075140000     1.1593470000    -0.4935280000
   36      H       0.6601360000     0.3812960000    -2.0599340000
   37      H       2.7703880000     1.5998750000    -1.1525930000
   38      H       2.8677450000     1.6560530000     1.5560250000
   39      H       0.3185880000    -7.3615890000    -0.8515740000
   40      H      -0.5805220000    -7.3611920000     0.7041810000
   41      H       0.5404590000    -1.4788310000    -0.9350420000
 ----------------------------------------------------------------

   11   -1571.6633898572      6.42e-07  Convergence criterion met
 Total energy in the final basis set =    -1571.6633898572
        RIMP2         total energy =     -1576.3391010698 a.u.

                    Orbital Energies (a.u.)
 --------------------------------------------------------------

 Alpha MOs
 -- Occupied --
-91.9921 -20.5518 -20.5428 -20.5385 -20.5381 -15.6256 -15.6189 -11.3918
-11.3832 -11.3799 -11.3766 -11.3056 -11.3015 -11.3012 -11.3005 -11.2995
-11.2916 -11.2827 -11.2774 -11.2752 -11.2646 -11.2625 -11.2621 -11.2597
-11.2596 -11.2583 -11.2490  -8.9932  -6.6737  -6.6731  -6.6729  -1.4182
 -1.4097  -1.3958  -1.3888  -1.2605  -1.2531  -1.2355  -1.1959  -1.1509
 -1.1105  -1.0826  -1.0437  -1.0039  -0.9984  -0.9855  -0.9536  -0.9469
 -0.8943  -0.8843  -0.8730  -0.8552  -0.7984  -0.7788  -0.7687  -0.7665
 -0.7411  -0.7189  -0.7030  -0.6911  -0.6849  -0.6694  -0.6646  -0.6554
 -0.6457  -0.6445  -0.6342  -0.6329  -0.6279  -0.6247  -0.6196  -0.6032
 -0.5880  -0.5820  -0.5699  -0.5600  -0.5548  -0.5510  -0.5498  -0.5482
 -0.5456  -0.5417  -0.5222  -0.5061  -0.4907  -0.4838  -0.4747  -0.4680
 -0.4561  -0.4493  -0.4403  -0.4315  -0.4121  -0.4054  -0.3633  -0.3409
 -0.3368  -0.2793

          Ground-State Mulliken Net Atomic Charges

     Atom                 Charge (a.u.)
  ----------------------------------------
      1 C                    -0.086164
      2 C                    -0.038403
      3 C                    -0.114531
      4 C                    -0.116998
      5 H                     0.196555
      6 C                     0.010142
      7 C                     0.104105
      8 C                    -0.077335
      9 C                    -0.176692
     10 C                    -0.183580
     11 C                     0.213612
     12 H                     0.194185
     13 C                     0.339709
     14 C                     0.339982
     15 N                    -0.088587
     16 C                     0.355333
     17 C                     0.358256
     18 N                    -0.090576
     19 O                    -0.499485
     20 O                    -0.512934
     21 O                    -0.502761
     22 O                    -0.470766
     23 C                    -0.205886
     24 H                     0.139273
     25 H                     0.108453
     26 H                     0.107913
     27 C                    -0.198517
     28 H                     0.133043
     29 H                     0.110352
     30 H                     0.111888
     31 C                    -0.094170
     32 S                     0.024372
     33 C                    -0.149640
     34 C                    -0.091381
     35 C                    -0.228979
     36 H                     0.196078
     37 H                     0.194701
     38 H                     0.218151
     39 H                     0.134169
     40 H                     0.134468
     41 H                     0.202641
  ----------------------------------------
  Sum of atomic charges =     0.000000

                    Cartesian Multipole Moments
 -----------------------------------------------------------------
    Charge (ESU x 10^10)
                 0.0000
    Dipole Moment (Debye)
         X       2.2749      Y       3.2103      Z      -2.1257
       Tot       4.4722
    Quadrupole Moments (Debye-Ang)
        XX    -178.9954     XY      13.4447     YY    -193.9998
        XZ     -14.0661     YZ       6.0169     ZZ    -163.6940

 Total job time:  328.51s(wall), 9037.26s(cpu)
        *  Thank you very much for using Q-Chem.  Have a nice day.  *
