 Q-Chem 5.4, Q-Chem, Inc., Pleasanton, CA (2021)
 Q-Chem 5.4.0 for Intel X86 EM64T Linux

User input:
--------------------------------------------------------------
$molecule
0 1
C	0.221766	-6.741404	-0.129743
C	1.352515	-6.155638	-0.782726
C	-0.717339	-5.791452	0.411926
C	1.593885	-4.803786	-0.921816
H	2.112819	-6.821518	-1.221908
C	-0.464360	-4.378638	0.266682
C	0.688053	-3.838032	-0.398255
C	-1.369108	-3.413062	0.789694
C	0.939002	-2.426473	-0.542349
C	-1.130409	-2.059348	0.652589
C	0.000000	-1.478216	0.000000
H	-1.891446	-1.394783	1.092453
C	-1.967519	-6.187987	1.131595
C	-2.608118	-3.798164	1.504912
N	-2.819813	-5.170003	1.625174
C	2.836188	-4.424987	-1.639129
C	2.189558	-2.036627	-1.263477
N	3.042237	-3.049156	-1.756898
O	-2.307845	-7.353131	1.324787
O	-3.407213	-2.986854	1.967354
O	3.625890	-5.248946	-2.095892
O	2.547850	-0.878829	-1.468685
C	-4.043674	-5.563799	2.330564
H	-4.083407	-6.664085	2.352178
H	-4.925490	-5.147101	1.807263
H	-4.031877	-5.148785	3.356568
C	4.247206	-2.587487	-2.452080
H	4.803187	-3.483329	-2.774302
H	4.860536	-1.964972	-1.773301
H	3.966607	-1.962932	-3.321351
C	0.000000	0.000000	0.000000
S	0.396411	0.687007	1.580530
C	1.215245	2.105322	0.904911
C	0.498850	0.864369	-0.985400
C	1.158885	2.007781	-0.493528
H	0.381046	0.660280	-2.059934
H	1.599289	2.770727	-1.152593
H	1.655514	2.868056	1.556025
H	0.578191	-7.361589	0.701693
H	-0.319578	-7.361192	-0.854838
H	0.539540	-1.478831	0.935572
$end

$rem
JOBTYPE		SP
EXCHANGE	HF
CORRELATION	pRIMP2
BASIS		cc-pvtz
METHOD		rimp2
AUX_BASIS	rimp2-cc-pvtz
SOLVENT_METHOD	PCM
PURECART	11111
SYMMETRY	false
MEM_TOTAL	110000
SCF_CONVERGENCE = 6
THRESH=10
GUI = 2
$end

$solvent
dielectric 4.90
$end
--------------------------------------------------------------

             Standard Nuclear Orientation (Angstroms)
    I     Atom           X                Y                Z
 ----------------------------------------------------------------
    1      C       0.2217660000    -6.7414040000    -0.1297430000
    2      C       1.3525150000    -6.1556380000    -0.7827260000
    3      C      -0.7173390000    -5.7914520000     0.4119260000
    4      C       1.5938850000    -4.8037860000    -0.9218160000
    5      H       2.1128190000    -6.8215180000    -1.2219080000
    6      C      -0.4643600000    -4.3786380000     0.2666820000
    7      C       0.6880530000    -3.8380320000    -0.3982550000
    8      C      -1.3691080000    -3.4130620000     0.7896940000
    9      C       0.9390020000    -2.4264730000    -0.5423490000
   10      C      -1.1304090000    -2.0593480000     0.6525890000
   11      C       0.0000000000    -1.4782160000     0.0000000000
   12      H      -1.8914460000    -1.3947830000     1.0924530000
   13      C      -1.9675190000    -6.1879870000     1.1315950000
   14      C      -2.6081180000    -3.7981640000     1.5049120000
   15      N      -2.8198130000    -5.1700030000     1.6251740000
   16      C       2.8361880000    -4.4249870000    -1.6391290000
   17      C       2.1895580000    -2.0366270000    -1.2634770000
   18      N       3.0422370000    -3.0491560000    -1.7568980000
   19      O      -2.3078450000    -7.3531310000     1.3247870000
   20      O      -3.4072130000    -2.9868540000     1.9673540000
   21      O       3.6258900000    -5.2489460000    -2.0958920000
   22      O       2.5478500000    -0.8788290000    -1.4686850000
   23      C      -4.0436740000    -5.5637990000     2.3305640000
   24      H      -4.0834070000    -6.6640850000     2.3521780000
   25      H      -4.9254900000    -5.1471010000     1.8072630000
   26      H      -4.0318770000    -5.1487850000     3.3565680000
   27      C       4.2472060000    -2.5874870000    -2.4520800000
   28      H       4.8031870000    -3.4833290000    -2.7743020000
   29      H       4.8605360000    -1.9649720000    -1.7733010000
   30      H       3.9666070000    -1.9629320000    -3.3213510000
   31      C       0.0000000000     0.0000000000     0.0000000000
   32      S       0.3964110000     0.6870070000     1.5805300000
   33      C       1.2152450000     2.1053220000     0.9049110000
   34      C       0.4988500000     0.8643690000    -0.9854000000
   35      C       1.1588850000     2.0077810000    -0.4935280000
   36      H       0.3810460000     0.6602800000    -2.0599340000
   37      H       1.5992890000     2.7707270000    -1.1525930000
   38      H       1.6555140000     2.8680560000     1.5560250000
   39      H       0.5781910000    -7.3615890000     0.7016930000
   40      H      -0.3195780000    -7.3611920000    -0.8548380000
   41      H       0.5395400000    -1.4788310000     0.9355720000
 ----------------------------------------------------------------

   11   -1571.7240750464      5.74e-07  Convergence criterion met
 Total energy in the final basis set =    -1571.7240750464
        RIMP2         total energy =     -1576.3834990705 a.u.

                    Orbital Energies (a.u.)
 --------------------------------------------------------------

 Alpha MOs
 -- Occupied --
-91.9891 -20.5502 -20.5441 -20.5403 -20.5392 -15.6266 -15.6201 -11.3927
-11.3847 -11.3822 -11.3776 -11.3072 -11.3052 -11.3041 -11.3035 -11.2957
-11.2882 -11.2847 -11.2820 -11.2674 -11.2670 -11.2630 -11.2624 -11.2587
-11.2577 -11.2517 -11.2495  -8.9894  -6.6702  -6.6697  -6.6691  -1.4192
 -1.4110  -1.3969  -1.3901  -1.2617  -1.2543  -1.2290  -1.1871  -1.1516
 -1.1125  -1.0852  -1.0453  -0.9956  -0.9872  -0.9850  -0.9543  -0.9498
 -0.8948  -0.8851  -0.8760  -0.8591  -0.7913  -0.7748  -0.7716  -0.7681
 -0.7396  -0.7156  -0.7029  -0.6899  -0.6760  -0.6705  -0.6663  -0.6564
 -0.6463  -0.6428  -0.6370  -0.6307  -0.6300  -0.6262  -0.6222  -0.6039
 -0.5843  -0.5732  -0.5672  -0.5606  -0.5558  -0.5508  -0.5490  -0.5472
 -0.5468  -0.5433  -0.5226  -0.5129  -0.5057  -0.4800  -0.4733  -0.4676
 -0.4556  -0.4505  -0.4417  -0.4336  -0.4130  -0.4065  -0.3526  -0.3512
 -0.3288  -0.2835

          Ground-State Mulliken Net Atomic Charges

     Atom                 Charge (a.u.)
  ----------------------------------------
      1 C                    -0.085042
      2 C                    -0.030400
      3 C                    -0.116048
      4 C                    -0.122662
      5 H                     0.198207
      6 C                     0.009962
      7 C                     0.122539
      8 C                    -0.063693
      9 C                    -0.152565
     10 C                    -0.171200
     11 C                     0.213692
     12 H                     0.193845
     13 C                     0.343304
     14 C                     0.346671
     15 N                    -0.089193
     16 C                     0.357033
     17 C                     0.369132
     18 N                    -0.088863
     19 O                    -0.496223
     20 O                    -0.508294
     21 O                    -0.502113
     22 O                    -0.473553
     23 C                    -0.205055
     24 H                     0.139207
     25 H                     0.108885
     26 H                     0.108895
     27 C                    -0.197654
     28 H                     0.133611
     29 H                     0.111447
     30 H                     0.110503
     31 C                    -0.081135
     32 S                     0.004422
     33 C                    -0.200784
     34 C                    -0.147010
     35 C                    -0.192097
     36 H                     0.182541
     37 H                     0.188845
     38 H                     0.213774
     39 H                     0.136747
     40 H                     0.137021
     41 H                     0.193302
  ----------------------------------------
  Sum of atomic charges =     0.000000

                    Cartesian Multipole Moments
 -----------------------------------------------------------------
    Charge (ESU x 10^10)
                 0.0000
    Dipole Moment (Debye)
         X       2.6520      Y       2.7202      Z      -1.1333
       Tot       3.9645
    Quadrupole Moments (Debye-Ang)
        XX    -184.8806     XY      -3.3853     YY    -182.3805
        XZ      14.8819     YZ       4.1038     ZZ    -164.6093

 Total job time:  299.45s(wall), 9098.95s(cpu)
        *  Thank you very much for using Q-Chem.  Have a nice day.  *
