 Q-Chem 5.4, Q-Chem, Inc., Pleasanton, CA (2021)
 Q-Chem 5.4.0 for Intel X86 EM64T Linux

User input:
--------------------------------------------------------------
$molecule
0 1
C	0.241938	-6.741404	0.086486
C	1.468983	-6.155638	0.532960
C	-0.776651	-5.791452	-0.284733
C	1.730681	-4.803786	0.628455
H	2.294130	-6.821518	0.833086
C	-0.502775	-4.378638	-0.184300
C	0.747353	-3.838032	0.271086
C	-1.484986	-3.413062	-0.541191
C	1.019042	-2.426473	0.370703
C	-1.226525	-2.059348	-0.446468
C	-0.000000	-1.478216	-0.000000
H	-2.052666	-1.394783	-0.746717
C	-2.131549	-6.187987	-0.779832
C	-2.829295	-3.798164	-1.030596
N	-3.057496	-5.170003	-1.115461
C	3.078712	-4.424987	1.119034
C	2.375300	-2.036627	0.865151
N	3.301374	-3.049156	1.201176
O	-2.498300	-7.353131	-0.916355
O	-3.697195	-2.986854	-1.345486
O	3.936224	-5.248946	1.430379
O	2.762805	-0.878829	1.007714
C	-4.384539	-5.563799	-1.599576
H	-4.426636	-6.664085	-1.616121
H	-4.550487	-5.147101	-2.611458
H	-5.162921	-5.148785	-0.931037
C	4.608454	-2.587487	1.677382
H	5.212668	-3.483329	1.896168
H	4.482719	-1.964972	2.583531
H	5.093988	-1.962932	0.903674
C	0.000000	0.000000	0.000000
S	0.686805	0.396760	1.580530
C	2.105095	1.215640	0.904911
C	0.864201	0.499140	-0.985400
C	2.007514	1.159347	-0.493528
H	0.660136	0.381296	-2.059934
H	2.770388	1.599875	-1.152593
H	2.867745	1.656053	1.556025
H	-0.165874	-7.361589	0.893959
H	0.449423	-7.361192	-0.794290
H	-0.369880	-1.478831	1.014686
$end

$rem
JOBTYPE		SP
EXCHANGE	HF
CORRELATION	pRIMP2
BASIS		cc-pvtz
METHOD		rimp2
AUX_BASIS	rimp2-cc-pvtz
SOLVENT_METHOD	PCM
PURECART	11111
SYMMETRY	false
MEM_TOTAL	110000
SCF_CONVERGENCE = 6
THRESH=10
GUI = 2
$end

$solvent
dielectric 4.90
$end
--------------------------------------------------------------

             Standard Nuclear Orientation (Angstroms)
    I     Atom           X                Y                Z
 ----------------------------------------------------------------
    1      C       0.2419380000    -6.7414040000     0.0864860000
    2      C       1.4689830000    -6.1556380000     0.5329600000
    3      C      -0.7766510000    -5.7914520000    -0.2847330000
    4      C       1.7306810000    -4.8037860000     0.6284550000
    5      H       2.2941300000    -6.8215180000     0.8330860000
    6      C      -0.5027750000    -4.3786380000    -0.1843000000
    7      C       0.7473530000    -3.8380320000     0.2710860000
    8      C      -1.4849860000    -3.4130620000    -0.5411910000
    9      C       1.0190420000    -2.4264730000     0.3707030000
   10      C      -1.2265250000    -2.0593480000    -0.4464680000
   11      C       0.0000000000    -1.4782160000     0.0000000000
   12      H      -2.0526660000    -1.3947830000    -0.7467170000
   13      C      -2.1315490000    -6.1879870000    -0.7798320000
   14      C      -2.8292950000    -3.7981640000    -1.0305960000
   15      N      -3.0574960000    -5.1700030000    -1.1154610000
   16      C       3.0787120000    -4.4249870000     1.1190340000
   17      C       2.3753000000    -2.0366270000     0.8651510000
   18      N       3.3013740000    -3.0491560000     1.2011760000
   19      O      -2.4983000000    -7.3531310000    -0.9163550000
   20      O      -3.6971950000    -2.9868540000    -1.3454860000
   21      O       3.9362240000    -5.2489460000     1.4303790000
   22      O       2.7628050000    -0.8788290000     1.0077140000
   23      C      -4.3845390000    -5.5637990000    -1.5995760000
   24      H      -4.4266360000    -6.6640850000    -1.6161210000
   25      H      -4.5504870000    -5.1471010000    -2.6114580000
   26      H      -5.1629210000    -5.1487850000    -0.9310370000
   27      C       4.6084540000    -2.5874870000     1.6773820000
   28      H       5.2126680000    -3.4833290000     1.8961680000
   29      H       4.4827190000    -1.9649720000     2.5835310000
   30      H       5.0939880000    -1.9629320000     0.9036740000
   31      C       0.0000000000     0.0000000000     0.0000000000
   32      S       0.6868050000     0.3967600000     1.5805300000
   33      C       2.1050950000     1.2156400000     0.9049110000
   34      C       0.8642010000     0.4991400000    -0.9854000000
   35      C       2.0075140000     1.1593470000    -0.4935280000
   36      H       0.6601360000     0.3812960000    -2.0599340000
   37      H       2.7703880000     1.5998750000    -1.1525930000
   38      H       2.8677450000     1.6560530000     1.5560250000
   39      H      -0.1658740000    -7.3615890000     0.8939590000
   40      H       0.4494230000    -7.3611920000    -0.7942900000
   41      H      -0.3698800000    -1.4788310000     1.0146860000
 ----------------------------------------------------------------

   11   -1571.6285490954      8.29e-07  Convergence criterion met
 Total energy in the final basis set =    -1571.6285490954
        RIMP2         total energy =     -1576.3077093754 a.u.

                    Orbital Energies (a.u.)
 --------------------------------------------------------------

 Alpha MOs
 -- Occupied --
-91.9713 -20.5443 -20.5439 -20.5375 -20.5359 -15.6269 -15.6177 -11.3922
-11.3843 -11.3795 -11.3742 -11.3087 -11.3053 -11.3012 -11.2995 -11.2990
-11.2949 -11.2764 -11.2709 -11.2664 -11.2641 -11.2628 -11.2573 -11.2554
-11.2502 -11.2470 -11.2374  -8.9734  -6.6541  -6.6533  -6.6531  -1.4234
 -1.4083  -1.3991  -1.3874  -1.2632  -1.2519  -1.2271  -1.1873  -1.1493
 -1.1096  -1.0813  -1.0429  -0.9921  -0.9886  -0.9863  -0.9532  -0.9503
 -0.8941  -0.8789  -0.8747  -0.8563  -0.7856  -0.7784  -0.7734  -0.7682
 -0.7343  -0.7179  -0.7016  -0.6916  -0.6787  -0.6661  -0.6658  -0.6554
 -0.6488  -0.6430  -0.6337  -0.6288  -0.6284  -0.6273  -0.6216  -0.6003
 -0.5832  -0.5765  -0.5651  -0.5626  -0.5568  -0.5526  -0.5492  -0.5464
 -0.5452  -0.5418  -0.5133  -0.5072  -0.4949  -0.4785  -0.4665  -0.4636
 -0.4515  -0.4394  -0.4315  -0.4202  -0.4162  -0.4044  -0.3490  -0.3416
 -0.3154  -0.2824

          Ground-State Mulliken Net Atomic Charges

     Atom                 Charge (a.u.)
  ----------------------------------------
      1 C                    -0.084397
      2 C                    -0.033519
      3 C                    -0.122454
      4 C                    -0.114193
      5 H                     0.197591
      6 C                     0.016383
      7 C                     0.118026
      8 C                    -0.091129
      9 C                    -0.212423
     10 C                    -0.161316
     11 C                     0.217711
     12 H                     0.192065
     13 C                     0.340737
     14 C                     0.345202
     15 N                    -0.088647
     16 C                     0.352519
     17 C                     0.401235
     18 N                    -0.088002
     19 O                    -0.500259
     20 O                    -0.511843
     21 O                    -0.503137
     22 O                    -0.470954
     23 C                    -0.205803
     24 H                     0.138675
     25 H                     0.108138
     26 H                     0.108407
     27 C                    -0.197525
     28 H                     0.135018
     29 H                     0.109747
     30 H                     0.109807
     31 C                    -0.175834
     32 S                    -0.038414
     33 C                    -0.000025
     34 C                    -0.073439
     35 C                    -0.261533
     36 H                     0.193677
     37 H                     0.180377
     38 H                     0.208385
     39 H                     0.135630
     40 H                     0.135727
     41 H                     0.189787
  ----------------------------------------
  Sum of atomic charges =     0.000000

                    Cartesian Multipole Moments
 -----------------------------------------------------------------
    Charge (ESU x 10^10)
                 0.0000
    Dipole Moment (Debye)
         X       5.1022      Y       2.6529      Z       0.4471
       Tot       5.7680
    Quadrupole Moments (Debye-Ang)
        XX    -181.0281     XY      -3.7192     YY    -193.3089
        XZ      -8.2824     YZ      -4.2923     ZZ    -159.8644

 Total job time:  319.81s(wall), 9135.74s(cpu)
        *  Thank you very much for using Q-Chem.  Have a nice day.  *
