 Q-Chem 5.4, Q-Chem, Inc., Pleasanton, CA (2021)
 Q-Chem 5.4.0 for Intel X86 EM64T Linux

User input:
--------------------------------------------------------------
$molecule
0 1
C	0.089263	-6.741404	0.240927
C	0.535973	-6.155638	1.467886
C	-0.281103	-5.791452	-0.777972
C	0.631036	-4.803786	1.729742
H	0.836458	-6.821518	2.292903
C	-0.181995	-4.378638	-0.503614
C	0.272725	-3.838032	0.746756
C	-0.539954	-3.413062	-1.485437
C	0.371053	-2.426473	1.018915
C	-0.446381	-2.059348	-1.226557
C	0.000000	-1.478216	0.000000
H	-0.747410	-1.394783	-2.052413
C	-0.772747	-6.187987	-2.134128
C	-1.029154	-3.798164	-2.829820
N	-1.110828	-5.170003	-3.059182
C	1.121728	-4.424987	3.077731
C	0.864069	-2.036627	2.375694
N	1.201928	-3.049156	3.301101
O	-0.903908	-7.353131	-2.502830
O	-1.345809	-2.986854	-3.697078
O	1.434422	-5.248946	3.934752
O	1.003943	-0.878829	2.764177
C	-1.592981	-5.563799	-4.386939
H	-1.607367	-6.664085	-4.429822
H	-0.924504	-5.147101	-5.164489
H	-2.605446	-5.148785	-4.553486
C	1.677308	-2.587487	4.608481
H	1.898089	-3.483329	5.211969
H	0.902337	-1.964972	5.094624
H	2.582098	-1.962932	4.483092
C	0.000000	0.000000	0.000000
S	0.137535	0.781156	1.580530
C	0.421895	2.393994	0.904911
C	0.173134	0.982857	-0.985400
C	0.402294	2.283058	-0.493528
H	0.132237	0.750786	-2.059934
H	0.555196	3.150621	-1.152593
H	0.574741	3.261310	1.556025
H	-0.791434	-7.361589	0.447559
H	0.897345	-7.361192	-0.166282
H	-1.015049	-1.478831	0.368883
$end

$rem
JOBTYPE		SP
EXCHANGE	HF
CORRELATION	pRIMP2
BASIS		cc-pvtz
METHOD		rimp2
AUX_BASIS	rimp2-cc-pvtz
SOLVENT_METHOD	PCM
PURECART	11111
SYMMETRY	false
MEM_TOTAL	110000
SCF_CONVERGENCE = 6
THRESH=10
GUI = 2
$end

$solvent
dielectric 4.90
$end
--------------------------------------------------------------

             Standard Nuclear Orientation (Angstroms)
    I     Atom           X                Y                Z
 ----------------------------------------------------------------
    1      C       0.0892630000    -6.7414040000     0.2409270000
    2      C       0.5359730000    -6.1556380000     1.4678860000
    3      C      -0.2811030000    -5.7914520000    -0.7779720000
    4      C       0.6310360000    -4.8037860000     1.7297420000
    5      H       0.8364580000    -6.8215180000     2.2929030000
    6      C      -0.1819950000    -4.3786380000    -0.5036140000
    7      C       0.2727250000    -3.8380320000     0.7467560000
    8      C      -0.5399540000    -3.4130620000    -1.4854370000
    9      C       0.3710530000    -2.4264730000     1.0189150000
   10      C      -0.4463810000    -2.0593480000    -1.2265570000
   11      C       0.0000000000    -1.4782160000     0.0000000000
   12      H      -0.7474100000    -1.3947830000    -2.0524130000
   13      C      -0.7727470000    -6.1879870000    -2.1341280000
   14      C      -1.0291540000    -3.7981640000    -2.8298200000
   15      N      -1.1108280000    -5.1700030000    -3.0591820000
   16      C       1.1217280000    -4.4249870000     3.0777310000
   17      C       0.8640690000    -2.0366270000     2.3756940000
   18      N       1.2019280000    -3.0491560000     3.3011010000
   19      O      -0.9039080000    -7.3531310000    -2.5028300000
   20      O      -1.3458090000    -2.9868540000    -3.6970780000
   21      O       1.4344220000    -5.2489460000     3.9347520000
   22      O       1.0039430000    -0.8788290000     2.7641770000
   23      C      -1.5929810000    -5.5637990000    -4.3869390000
   24      H      -1.6073670000    -6.6640850000    -4.4298220000
   25      H      -0.9245040000    -5.1471010000    -5.1644890000
   26      H      -2.6054460000    -5.1487850000    -4.5534860000
   27      C       1.6773080000    -2.5874870000     4.6084810000
   28      H       1.8980890000    -3.4833290000     5.2119690000
   29      H       0.9023370000    -1.9649720000     5.0946240000
   30      H       2.5820980000    -1.9629320000     4.4830920000
   31      C       0.0000000000     0.0000000000     0.0000000000
   32      S       0.1375350000     0.7811560000     1.5805300000
   33      C       0.4218950000     2.3939940000     0.9049110000
   34      C       0.1731340000     0.9828570000    -0.9854000000
   35      C       0.4022940000     2.2830580000    -0.4935280000
   36      H       0.1322370000     0.7507860000    -2.0599340000
   37      H       0.5551960000     3.1506210000    -1.1525930000
   38      H       0.5747410000     3.2613100000     1.5560250000
   39      H      -0.7914340000    -7.3615890000     0.4475590000
   40      H       0.8973450000    -7.3611920000    -0.1662820000
   41      H      -1.0150490000    -1.4788310000     0.3688830000
 ----------------------------------------------------------------

   11   -1571.6948212426      6.00e-07  Convergence criterion met
 Total energy in the final basis set =    -1571.6948212426
        RIMP2         total energy =     -1576.3642646916 a.u.

                    Orbital Energies (a.u.)
 --------------------------------------------------------------

 Alpha MOs
 -- Occupied --
-91.9720 -20.5542 -20.5466 -20.5425 -20.5414 -15.6306 -15.6222 -11.4002
-11.3873 -11.3845 -11.3800 -11.3124 -11.3097 -11.3086 -11.3061 -11.2992
-11.2910 -11.2903 -11.2707 -11.2702 -11.2663 -11.2649 -11.2611 -11.2600
-11.2543 -11.2453 -11.2355  -8.9723  -6.6528  -6.6516  -6.6508  -1.4306
 -1.4131  -1.4028  -1.3922  -1.2673  -1.2565  -1.2313  -1.1850  -1.1458
 -1.1158  -1.0865  -1.0492  -0.9942  -0.9894  -0.9750  -0.9565  -0.9478
 -0.8983  -0.8908  -0.8797  -0.8630  -0.7918  -0.7810  -0.7755  -0.7595
 -0.7306  -0.7245  -0.7012  -0.6902  -0.6883  -0.6737  -0.6689  -0.6590
 -0.6512  -0.6446  -0.6385  -0.6332  -0.6325  -0.6319  -0.6240  -0.6060
 -0.5892  -0.5722  -0.5658  -0.5628  -0.5563  -0.5534  -0.5531  -0.5494
 -0.5485  -0.5455  -0.5193  -0.5143  -0.5121  -0.4869  -0.4796  -0.4637
 -0.4561  -0.4448  -0.4380  -0.4218  -0.4086  -0.4012  -0.3552  -0.3276
 -0.3240  -0.2780

          Ground-State Mulliken Net Atomic Charges

     Atom                 Charge (a.u.)
  ----------------------------------------
      1 C                    -0.084425
      2 C                    -0.027913
      3 C                    -0.108321
      4 C                    -0.123305
      5 H                     0.199833
      6 C                     0.023988
      7 C                     0.122957
      8 C                    -0.107627
      9 C                    -0.213099
     10 C                    -0.133300
     11 C                     0.239273
     12 H                     0.195132
     13 C                     0.342997
     14 C                     0.351036
     15 N                    -0.090264
     16 C                     0.358605
     17 C                     0.396772
     18 N                    -0.089825
     19 O                    -0.493764
     20 O                    -0.507283
     21 O                    -0.499573
     22 O                    -0.448645
     23 C                    -0.204665
     24 H                     0.139602
     25 H                     0.109511
     26 H                     0.109299
     27 C                    -0.198947
     28 H                     0.134790
     29 H                     0.112639
     30 H                     0.113030
     31 C                    -0.084507
     32 S                     0.063688
     33 C                    -0.238827
     34 C                    -0.164345
     35 C                    -0.248992
     36 H                     0.181105
     37 H                     0.180671
     38 H                     0.203593
     39 H                     0.138669
     40 H                     0.138944
     41 H                     0.211494
  ----------------------------------------
  Sum of atomic charges =     0.000000

                    Cartesian Multipole Moments
 -----------------------------------------------------------------
    Charge (ESU x 10^10)
                 0.0000
    Dipole Moment (Debye)
         X       0.1657      Y       0.3678      Z       1.4899
       Tot       1.5435
    Quadrupole Moments (Debye-Ang)
        XX    -165.9440     XY      -0.5076     YY    -177.9636
        XZ      -9.2193     YZ      -9.1491     ZZ    -182.8243

 Total job time:  346.87s(wall), 10426.41s(cpu)
        *  Thank you very much for using Q-Chem.  Have a nice day.  *
