 Q-Chem 5.4, Q-Chem, Inc., Pleasanton, CA (2021)
 Q-Chem 5.4.0 for Intel X86 EM64T Linux

User input:
--------------------------------------------------------------
$molecule
0 1
C	0.252767	-6.741404	-0.046070
C	1.538656	-6.155638	-0.272935
C	-0.814966	-5.791452	0.141739
C	1.813042	-4.803786	-0.321083
H	2.403318	-6.821518	-0.425592
C	-0.527566	-4.378638	0.091779
C	0.782769	-3.838032	-0.138909
C	-1.556632	-3.413062	0.273808
C	1.067868	-2.426473	-0.188483
C	-1.285436	-2.059348	0.226610
C	-0.000000	-1.478216	-0.000000
H	-2.151019	-1.394783	0.379657
C	-2.235891	-6.187987	0.390420
C	-2.965540	-3.798164	0.522125
N	-3.205600	-5.170003	0.562731
C	3.225760	-4.424987	-0.570244
C	2.489646	-2.036627	-0.438407
N	3.459662	-3.049156	-0.610438
O	-2.621768	-7.353131	0.455563
O	-3.874608	-2.986854	0.683373
O	4.124059	-5.248946	-0.729367
O	2.896516	-0.878829	-0.508697
C	-4.596910	-5.563799	0.806996
H	-4.641640	-6.664085	0.813717
H	-5.246567	-5.147101	0.013655
H	-4.936739	-5.148785	1.775159
C	4.829729	-2.587487	-0.851572
H	5.462387	-3.483329	-0.964204
H	5.173914	-1.964972	-0.003956
H	4.863360	-1.962932	-1.764390
C	0.000000	0.000000	0.000000
S	0.271091	0.745405	1.580530
C	0.831198	2.284363	0.904911
C	0.341175	0.937861	-0.985400
C	0.792631	2.178516	-0.493528
H	0.260601	0.716417	-2.059934
H	1.093860	3.006347	-1.152593
H	1.132330	3.111961	1.556025
H	0.303328	-7.361589	0.857128
H	-0.007933	-7.361192	-0.912587
H	0.187017	-1.478831	1.063684
$end

$rem
JOBTYPE		SP
EXCHANGE	HF
CORRELATION	pRIMP2
BASIS		cc-pvtz
METHOD		rimp2
AUX_BASIS	rimp2-cc-pvtz
SOLVENT_METHOD	PCM
PURECART	11111
SYMMETRY	false
MEM_TOTAL	110000
SCF_CONVERGENCE = 6
THRESH=10
GUI = 2
$end

$solvent
dielectric 4.90
$end
--------------------------------------------------------------

             Standard Nuclear Orientation (Angstroms)
    I     Atom           X                Y                Z
 ----------------------------------------------------------------
    1      C       0.2527670000    -6.7414040000    -0.0460700000
    2      C       1.5386560000    -6.1556380000    -0.2729350000
    3      C      -0.8149660000    -5.7914520000     0.1417390000
    4      C       1.8130420000    -4.8037860000    -0.3210830000
    5      H       2.4033180000    -6.8215180000    -0.4255920000
    6      C      -0.5275660000    -4.3786380000     0.0917790000
    7      C       0.7827690000    -3.8380320000    -0.1389090000
    8      C      -1.5566320000    -3.4130620000     0.2738080000
    9      C       1.0678680000    -2.4264730000    -0.1884830000
   10      C      -1.2854360000    -2.0593480000     0.2266100000
   11      C       0.0000000000    -1.4782160000     0.0000000000
   12      H      -2.1510190000    -1.3947830000     0.3796570000
   13      C      -2.2358910000    -6.1879870000     0.3904200000
   14      C      -2.9655400000    -3.7981640000     0.5221250000
   15      N      -3.2056000000    -5.1700030000     0.5627310000
   16      C       3.2257600000    -4.4249870000    -0.5702440000
   17      C       2.4896460000    -2.0366270000    -0.4384070000
   18      N       3.4596620000    -3.0491560000    -0.6104380000
   19      O      -2.6217680000    -7.3531310000     0.4555630000
   20      O      -3.8746080000    -2.9868540000     0.6833730000
   21      O       4.1240590000    -5.2489460000    -0.7293670000
   22      O       2.8965160000    -0.8788290000    -0.5086970000
   23      C      -4.5969100000    -5.5637990000     0.8069960000
   24      H      -4.6416400000    -6.6640850000     0.8137170000
   25      H      -5.2465670000    -5.1471010000     0.0136550000
   26      H      -4.9367390000    -5.1487850000     1.7751590000
   27      C       4.8297290000    -2.5874870000    -0.8515720000
   28      H       5.4623870000    -3.4833290000    -0.9642040000
   29      H       5.1739140000    -1.9649720000    -0.0039560000
   30      H       4.8633600000    -1.9629320000    -1.7643900000
   31      C       0.0000000000     0.0000000000     0.0000000000
   32      S       0.2710910000     0.7454050000     1.5805300000
   33      C       0.8311980000     2.2843630000     0.9049110000
   34      C       0.3411750000     0.9378610000    -0.9854000000
   35      C       0.7926310000     2.1785160000    -0.4935280000
   36      H       0.2606010000     0.7164170000    -2.0599340000
   37      H       1.0938600000     3.0063470000    -1.1525930000
   38      H       1.1323300000     3.1119610000     1.5560250000
   39      H       0.3033280000    -7.3615890000     0.8571280000
   40      H      -0.0079330000    -7.3611920000    -0.9125870000
   41      H       0.1870170000    -1.4788310000     1.0636840000
 ----------------------------------------------------------------

   11   -1571.7372608230      5.59e-07  Convergence criterion met
 Total energy in the final basis set =    -1571.7372608230
        RIMP2         total energy =     -1576.3935490867 a.u.

                    Orbital Energies (a.u.)
 --------------------------------------------------------------

 Alpha MOs
 -- Occupied --
-91.9924 -20.5506 -20.5441 -20.5412 -20.5398 -15.6263 -15.6207 -11.3922
-11.3847 -11.3830 -11.3783 -11.3079 -11.3069 -11.3043 -11.3041 -11.2961
-11.2885 -11.2870 -11.2857 -11.2683 -11.2677 -11.2630 -11.2626 -11.2590
-11.2550 -11.2523 -11.2507  -8.9922  -6.6730  -6.6725  -6.6719  -1.4185
 -1.4116  -1.3965  -1.3908  -1.2614  -1.2548  -1.2292  -1.1867  -1.1523
 -1.1132  -1.0861  -1.0458  -0.9959  -0.9873  -0.9849  -0.9545  -0.9508
 -0.8952  -0.8860  -0.8762  -0.8595  -0.7923  -0.7751  -0.7733  -0.7684
 -0.7390  -0.7160  -0.7039  -0.6909  -0.6760  -0.6698  -0.6670  -0.6567
 -0.6465  -0.6411  -0.6374  -0.6312  -0.6304  -0.6261  -0.6225  -0.6045
 -0.5841  -0.5744  -0.5669  -0.5609  -0.5563  -0.5508  -0.5496  -0.5474
 -0.5459  -0.5433  -0.5216  -0.5145  -0.5073  -0.4798  -0.4737  -0.4691
 -0.4561  -0.4502  -0.4421  -0.4341  -0.4129  -0.4070  -0.3557  -0.3509
 -0.3280  -0.2892

          Ground-State Mulliken Net Atomic Charges

     Atom                 Charge (a.u.)
  ----------------------------------------
      1 C                    -0.084386
      2 C                    -0.030557
      3 C                    -0.113252
      4 C                    -0.120140
      5 H                     0.198300
      6 C                     0.006826
      7 C                     0.116793
      8 C                    -0.068487
      9 C                    -0.142853
     10 C                    -0.167745
     11 C                     0.242657
     12 H                     0.190936
     13 C                     0.343490
     14 C                     0.350446
     15 N                    -0.089874
     16 C                     0.356786
     17 C                     0.354578
     18 N                    -0.090049
     19 O                    -0.494917
     20 O                    -0.507727
     21 O                    -0.501987
     22 O                    -0.470087
     23 C                    -0.204870
     24 H                     0.139358
     25 H                     0.109014
     26 H                     0.108980
     27 C                    -0.197612
     28 H                     0.133099
     29 H                     0.111614
     30 H                     0.111001
     31 C                    -0.072473
     32 S                     0.007359
     33 C                    -0.210271
     34 C                    -0.173006
     35 C                    -0.193439
     36 H                     0.186280
     37 H                     0.190404
     38 H                     0.213384
     39 H                     0.137307
     40 H                     0.137484
     41 H                     0.187636
  ----------------------------------------
  Sum of atomic charges =     0.000000

                    Cartesian Multipole Moments
 -----------------------------------------------------------------
    Charge (ESU x 10^10)
                 0.0000
    Dipole Moment (Debye)
         X       1.8886      Y       2.5995      Z      -0.4850
       Tot       3.2495
    Quadrupole Moments (Debye-Ang)
        XX    -193.9335     XY      -5.1689     YY    -179.5004
        XZ       6.0592     YZ       1.0647     ZZ    -157.1256

 Total job time:  298.21s(wall), 9080.85s(cpu)
        *  Thank you very much for using Q-Chem.  Have a nice day.  *
