 Q-Chem 5.4, Q-Chem, Inc., Pleasanton, CA (2021)
 Q-Chem 5.4.0 for Intel X86 EM64T Linux

User input:
--------------------------------------------------------------
$molecule
0 1
C	0.001478	-6.741404	0.256927
C	0.001603	-6.155638	1.562675
C	0.001931	-5.791452	-0.827197
C	0.001374	-4.803786	1.841253
H	0.001794	-6.821518	2.440709
C	0.001227	-4.378638	-0.535488
C	0.000872	-3.838032	0.794999
C	0.000658	-3.413062	-1.580529
C	0.000186	-2.426473	1.084374
C	0.000046	-2.059348	-1.305258
C	-0.000000	-1.478216	-0.000000
H	-0.000369	-1.394783	-2.184267
C	0.003770	-6.187987	-2.269719
C	0.000767	-3.798164	-3.011152
N	0.002465	-5.170003	-3.254617
C	0.001433	-4.424987	3.275775
C	-0.000576	-2.036627	2.527951
N	0.000400	-3.049156	3.513104
O	0.006623	-7.353131	-2.661046
O	-0.000172	-2.986854	-3.934410
O	0.002151	-5.248946	4.188059
O	-0.002006	-0.878829	2.940845
C	0.003509	-5.563799	-4.667206
H	0.004658	-6.664085	-4.712423
H	0.897610	-5.147101	-5.169231
H	-0.890935	-5.148785	-5.169992
C	-0.000039	-2.587487	4.904229
H	0.001022	-3.483329	5.546833
H	-0.894545	-1.964972	5.095998
H	0.893071	-1.962932	5.095858
C	0.000000	0.000000	0.000000
S	0.271091	0.745405	1.580530
C	0.831198	2.284363	0.904911
C	0.341175	0.937861	-0.985400
C	0.792631	2.178516	-0.493528
H	0.260601	0.716417	-2.059934
H	1.093860	3.006347	-1.152593
H	1.132330	3.111961	1.556025
H	-0.896779	-7.361589	0.149881
H	0.900100	-7.361192	0.150656
H	-1.080000	-1.478831	-0.000531
$end

$rem
JOBTYPE		SP
EXCHANGE	HF
CORRELATION	pRIMP2
BASIS		cc-pvtz
METHOD		rimp2
AUX_BASIS	rimp2-cc-pvtz
SOLVENT_METHOD	PCM
PURECART	11111
SYMMETRY	false
MEM_TOTAL	110000
SCF_CONVERGENCE = 6
THRESH=10
GUI = 2
$end

$solvent
dielectric 4.90
$end
--------------------------------------------------------------

             Standard Nuclear Orientation (Angstroms)
    I     Atom           X                Y                Z
 ----------------------------------------------------------------
    1      C       0.0014780000    -6.7414040000     0.2569270000
    2      C       0.0016030000    -6.1556380000     1.5626750000
    3      C       0.0019310000    -5.7914520000    -0.8271970000
    4      C       0.0013740000    -4.8037860000     1.8412530000
    5      H       0.0017940000    -6.8215180000     2.4407090000
    6      C       0.0012270000    -4.3786380000    -0.5354880000
    7      C       0.0008720000    -3.8380320000     0.7949990000
    8      C       0.0006580000    -3.4130620000    -1.5805290000
    9      C       0.0001860000    -2.4264730000     1.0843740000
   10      C       0.0000460000    -2.0593480000    -1.3052580000
   11      C       0.0000000000    -1.4782160000     0.0000000000
   12      H      -0.0003690000    -1.3947830000    -2.1842670000
   13      C       0.0037700000    -6.1879870000    -2.2697190000
   14      C       0.0007670000    -3.7981640000    -3.0111520000
   15      N       0.0024650000    -5.1700030000    -3.2546170000
   16      C       0.0014330000    -4.4249870000     3.2757750000
   17      C      -0.0005760000    -2.0366270000     2.5279510000
   18      N       0.0004000000    -3.0491560000     3.5131040000
   19      O       0.0066230000    -7.3531310000    -2.6610460000
   20      O      -0.0001720000    -2.9868540000    -3.9344100000
   21      O       0.0021510000    -5.2489460000     4.1880590000
   22      O      -0.0020060000    -0.8788290000     2.9408450000
   23      C       0.0035090000    -5.5637990000    -4.6672060000
   24      H       0.0046580000    -6.6640850000    -4.7124230000
   25      H       0.8976100000    -5.1471010000    -5.1692310000
   26      H      -0.8909350000    -5.1487850000    -5.1699920000
   27      C      -0.0000390000    -2.5874870000     4.9042290000
   28      H       0.0010220000    -3.4833290000     5.5468330000
   29      H      -0.8945450000    -1.9649720000     5.0959980000
   30      H       0.8930710000    -1.9629320000     5.0958580000
   31      C       0.0000000000     0.0000000000     0.0000000000
   32      S       0.2710910000     0.7454050000     1.5805300000
   33      C       0.8311980000     2.2843630000     0.9049110000
   34      C       0.3411750000     0.9378610000    -0.9854000000
   35      C       0.7926310000     2.1785160000    -0.4935280000
   36      H       0.2606010000     0.7164170000    -2.0599340000
   37      H       1.0938600000     3.0063470000    -1.1525930000
   38      H       1.1323300000     3.1119610000     1.5560250000
   39      H      -0.8967790000    -7.3615890000     0.1498810000
   40      H       0.9001000000    -7.3611920000     0.1506560000
   41      H      -1.0800000000    -1.4788310000    -0.0005310000
 ----------------------------------------------------------------

   11   -1571.6808657601      6.00e-07  Convergence criterion met
 Total energy in the final basis set =    -1571.6808657601
        RIMP2         total energy =     -1576.3527746163 a.u.

                    Orbital Energies (a.u.)
 --------------------------------------------------------------

 Alpha MOs
 -- Occupied --
-91.9676 -20.5587 -20.5472 -20.5423 -20.5415 -15.6320 -15.6222 -11.4026
-11.3880 -11.3842 -11.3801 -11.3126 -11.3099 -11.3098 -11.3061 -11.2994
-11.2908 -11.2900 -11.2704 -11.2702 -11.2665 -11.2656 -11.2600 -11.2542
-11.2542 -11.2475 -11.2362  -8.9677  -6.6482  -6.6467  -6.6457  -1.4354
 -1.4130  -1.4042  -1.3921  -1.2692  -1.2565  -1.2317  -1.1853  -1.1454
 -1.1161  -1.0863  -1.0496  -0.9949  -0.9897  -0.9751  -0.9569  -0.9474
 -0.8994  -0.8915  -0.8802  -0.8633  -0.7919  -0.7829  -0.7764  -0.7583
 -0.7310  -0.7281  -0.7016  -0.6898  -0.6890  -0.6768  -0.6692  -0.6594
 -0.6522  -0.6458  -0.6380  -0.6341  -0.6331  -0.6323  -0.6234  -0.6065
 -0.5905  -0.5717  -0.5681  -0.5635  -0.5562  -0.5546  -0.5537  -0.5501
 -0.5485  -0.5458  -0.5223  -0.5135  -0.5119  -0.4895  -0.4762  -0.4643
 -0.4561  -0.4447  -0.4382  -0.4204  -0.4085  -0.3788  -0.3557  -0.3371
 -0.3264  -0.2755

          Ground-State Mulliken Net Atomic Charges

     Atom                 Charge (a.u.)
  ----------------------------------------
      1 C                    -0.084265
      2 C                    -0.028839
      3 C                    -0.107459
      4 C                    -0.121099
      5 H                     0.199839
      6 C                     0.026762
      7 C                     0.123032
      8 C                    -0.098030
      9 C                    -0.193996
     10 C                    -0.134094
     11 C                     0.190058
     12 H                     0.194445
     13 C                     0.341891
     14 C                     0.347927
     15 N                    -0.090176
     16 C                     0.358242
     17 C                     0.387075
     18 N                    -0.087348
     19 O                    -0.494478
     20 O                    -0.507883
     21 O                    -0.498538
     22 O                    -0.440073
     23 C                    -0.204858
     24 H                     0.139683
     25 H                     0.109517
     26 H                     0.109252
     27 C                    -0.199106
     28 H                     0.135512
     29 H                     0.112847
     30 H                     0.113536
     31 C                    -0.015882
     32 S                     0.078688
     33 C                    -0.267834
     34 C                    -0.214335
     35 C                    -0.230242
     36 H                     0.178875
     37 H                     0.179956
     38 H                     0.199825
     39 H                     0.138430
     40 H                     0.138794
     41 H                     0.214346
  ----------------------------------------
  Sum of atomic charges =     0.000000

                    Cartesian Multipole Moments
 -----------------------------------------------------------------
    Charge (ESU x 10^10)
                 0.0000
    Dipole Moment (Debye)
         X      -0.5842      Y       0.1427      Z       1.3615
       Tot       1.4884
    Quadrupole Moments (Debye-Ang)
        XX    -161.6875     XY       3.8847     YY    -179.1971
        XZ       0.2268     YZ     -10.2404     ZZ    -185.8973

 Total job time:  436.08s(wall), 10007.65s(cpu)
        *  Thank you very much for using Q-Chem.  Have a nice day.  *
