 Q-Chem 5.4, Q-Chem, Inc., Pleasanton, CA (2021)
 Q-Chem 5.4.0 for Intel X86 EM64T Linux

User input:
--------------------------------------------------------------
$molecule
0 1
C	0.164018	-6.741404	-0.197767
C	1.003240	-6.155638	-1.198109
C	-0.533192	-5.791452	0.632428
C	1.182482	-4.803786	-1.411364
H	1.567483	-6.821518	-1.870845
C	-0.345145	-4.378638	0.409419
C	0.510347	-3.838032	-0.609565
C	-1.016449	-3.413062	1.210332
C	0.696879	-2.426473	-0.830799
C	-0.839039	-2.059348	0.999856
C	0.000000	-1.478216	0.000000
H	-1.403737	-1.394783	1.673483
C	-1.461835	-6.187987	1.736282
C	-1.936119	-3.798164	2.306183
N	-2.093916	-5.170003	2.491597
C	2.104529	-4.424987	-2.510310
C	1.625377	-2.036627	-1.936153
N	2.257873	-3.049156	-2.691451
O	-1.715561	-7.353131	2.034222
O	-2.528858	-2.986854	3.014044
O	2.690385	-5.248946	-3.209622
O	1.891876	-0.878829	-2.251529
C	-3.002711	-5.563799	3.573032
H	-3.032655	-6.664085	3.606932
H	-4.010326	-5.147101	3.382888
H	-2.640711	-5.148785	4.533125
C	3.152408	-2.587487	-3.756832
H	3.564653	-3.483329	-4.249778
H	3.960905	-1.964972	-3.328759
H	2.591422	-1.962932	-4.477709
C	0.000000	0.000000	0.000000
S	0.509686	0.607733	1.580530
C	1.562368	1.862312	0.904911
C	0.641367	0.764613	-0.985400
C	1.489926	1.776040	-0.493528
H	0.489914	0.584081	-2.059934
H	2.056124	2.450920	-1.152593
H	2.128395	2.537007	1.556025
H	0.783314	-7.361589	0.461623
H	-0.592677	-7.361192	-0.693983
H	0.826987	-1.478831	0.694617
$end

$rem
JOBTYPE		SP
EXCHANGE	HF
CORRELATION	pRIMP2
BASIS		cc-pvtz
METHOD		rimp2
AUX_BASIS	rimp2-cc-pvtz
SOLVENT_METHOD	PCM
PURECART	11111
SYMMETRY	false
MEM_TOTAL	110000
SCF_CONVERGENCE = 6
THRESH=10
GUI = 2
$end

$solvent
dielectric 4.90
$end
--------------------------------------------------------------

             Standard Nuclear Orientation (Angstroms)
    I     Atom           X                Y                Z
 ----------------------------------------------------------------
    1      C       0.1640180000    -6.7414040000    -0.1977670000
    2      C       1.0032400000    -6.1556380000    -1.1981090000
    3      C      -0.5331920000    -5.7914520000     0.6324280000
    4      C       1.1824820000    -4.8037860000    -1.4113640000
    5      H       1.5674830000    -6.8215180000    -1.8708450000
    6      C      -0.3451450000    -4.3786380000     0.4094190000
    7      C       0.5103470000    -3.8380320000    -0.6095650000
    8      C      -1.0164490000    -3.4130620000     1.2103320000
    9      C       0.6968790000    -2.4264730000    -0.8307990000
   10      C      -0.8390390000    -2.0593480000     0.9998560000
   11      C       0.0000000000    -1.4782160000     0.0000000000
   12      H      -1.4037370000    -1.3947830000     1.6734830000
   13      C      -1.4618350000    -6.1879870000     1.7362820000
   14      C      -1.9361190000    -3.7981640000     2.3061830000
   15      N      -2.0939160000    -5.1700030000     2.4915970000
   16      C       2.1045290000    -4.4249870000    -2.5103100000
   17      C       1.6253770000    -2.0366270000    -1.9361530000
   18      N       2.2578730000    -3.0491560000    -2.6914510000
   19      O      -1.7155610000    -7.3531310000     2.0342220000
   20      O      -2.5288580000    -2.9868540000     3.0140440000
   21      O       2.6903850000    -5.2489460000    -3.2096220000
   22      O       1.8918760000    -0.8788290000    -2.2515290000
   23      C      -3.0027110000    -5.5637990000     3.5730320000
   24      H      -3.0326550000    -6.6640850000     3.6069320000
   25      H      -4.0103260000    -5.1471010000     3.3828880000
   26      H      -2.6407110000    -5.1487850000     4.5331250000
   27      C       3.1524080000    -2.5874870000    -3.7568320000
   28      H       3.5646530000    -3.4833290000    -4.2497780000
   29      H       3.9609050000    -1.9649720000    -3.3287590000
   30      H       2.5914220000    -1.9629320000    -4.4777090000
   31      C       0.0000000000     0.0000000000     0.0000000000
   32      S       0.5096860000     0.6077330000     1.5805300000
   33      C       1.5623680000     1.8623120000     0.9049110000
   34      C       0.6413670000     0.7646130000    -0.9854000000
   35      C       1.4899260000     1.7760400000    -0.4935280000
   36      H       0.4899140000     0.5840810000    -2.0599340000
   37      H       2.0561240000     2.4509200000    -1.1525930000
   38      H       2.1283950000     2.5370070000     1.5560250000
   39      H       0.7833140000    -7.3615890000     0.4616230000
   40      H      -0.5926770000    -7.3611920000    -0.6939830000
   41      H       0.8269870000    -1.4788310000     0.6946170000
 ----------------------------------------------------------------

   11   -1571.6997677198      5.81e-07  Convergence criterion met
 Total energy in the final basis set =    -1571.6997677198
        RIMP2         total energy =     -1576.3643740352 a.u.

                    Orbital Energies (a.u.)
 --------------------------------------------------------------

 Alpha MOs
 -- Occupied --
-91.9840 -20.5509 -20.5449 -20.5402 -20.5393 -15.6282 -15.6201 -11.3956
-11.3854 -11.3821 -11.3777 -11.3067 -11.3048 -11.3044 -11.3035 -11.2957
-11.2915 -11.2832 -11.2746 -11.2675 -11.2668 -11.2641 -11.2633 -11.2586
-11.2568 -11.2517 -11.2479  -8.9849  -6.6658  -6.6652  -6.6646  -1.4227
 -1.4110  -1.3991  -1.3901  -1.2636  -1.2544  -1.2298  -1.1884  -1.1508
 -1.1126  -1.0846  -1.0458  -0.9958  -0.9878  -0.9855  -0.9547  -0.9486
 -0.8954  -0.8855  -0.8766  -0.8595  -0.7909  -0.7769  -0.7710  -0.7663
 -0.7394  -0.7207  -0.7026  -0.6879  -0.6777  -0.6730  -0.6663  -0.6569
 -0.6468  -0.6455  -0.6367  -0.6308  -0.6300  -0.6280  -0.6223  -0.6037
 -0.5868  -0.5715  -0.5685  -0.5603  -0.5565  -0.5515  -0.5498  -0.5480
 -0.5467  -0.5428  -0.5201  -0.5125  -0.5053  -0.4813  -0.4729  -0.4645
 -0.4552  -0.4498  -0.4418  -0.4338  -0.4144  -0.4066  -0.3529  -0.3478
 -0.3294  -0.2778

          Ground-State Mulliken Net Atomic Charges

     Atom                 Charge (a.u.)
  ----------------------------------------
      1 C                    -0.085687
      2 C                    -0.031114
      3 C                    -0.115815
      4 C                    -0.123506
      5 H                     0.198149
      6 C                     0.015774
      7 C                     0.128328
      8 C                    -0.078769
      9 C                    -0.185162
     10 C                    -0.152269
     11 C                     0.192029
     12 H                     0.186909
     13 C                     0.343310
     14 C                     0.345810
     15 N                    -0.089399
     16 C                     0.357742
     17 C                     0.392708
     18 N                    -0.087386
     19 O                    -0.496445
     20 O                    -0.507845
     21 O                    -0.501598
     22 O                    -0.483464
     23 C                    -0.205174
     24 H                     0.139206
     25 H                     0.109006
     26 H                     0.108882
     27 C                    -0.198549
     28 H                     0.134353
     29 H                     0.111500
     30 H                     0.111234
     31 C                    -0.088392
     32 S                    -0.006675
     33 C                    -0.188304
     34 C                    -0.113026
     35 C                    -0.210294
     36 H                     0.192784
     37 H                     0.190518
     38 H                     0.214545
     39 H                     0.136619
     40 H                     0.136994
     41 H                     0.202472
  ----------------------------------------
  Sum of atomic charges =     0.000000

                    Cartesian Multipole Moments
 -----------------------------------------------------------------
    Charge (ESU x 10^10)
                 0.0000
    Dipole Moment (Debye)
         X       3.2247      Y       2.4594      Z      -1.9534
       Tot       4.5014
    Quadrupole Moments (Debye-Ang)
        XX    -171.2126     XY      -1.0409     YY    -184.3081
        XZ      16.4955     YZ       6.8830     ZZ    -175.6630

 Total job time:  293.30s(wall), 8864.13s(cpu)
        *  Thank you very much for using Q-Chem.  Have a nice day.  *
