 Q-Chem 5.4, Q-Chem, Inc., Pleasanton, CA (2021)
 Q-Chem 5.4.0 for Intel X86 EM64T Linux

User input:
--------------------------------------------------------------
$molecule
0 1
C	0.129743	-6.741404	0.221766
C	0.782726	-6.155638	1.352515
C	-0.411926	-5.791452	-0.717339
C	0.921816	-4.803786	1.593885
H	1.221908	-6.821518	2.112819
C	-0.266682	-4.378638	-0.464360
C	0.398255	-3.838032	0.688053
C	-0.789694	-3.413062	-1.369108
C	0.542349	-2.426473	0.939002
C	-0.652589	-2.059348	-1.130409
C	0.000000	-1.478216	0.000000
H	-1.092453	-1.394783	-1.891446
C	-1.131595	-6.187987	-1.967519
C	-1.504912	-3.798164	-2.608118
N	-1.625174	-5.170003	-2.819813
C	1.639129	-4.424987	2.836188
C	1.263477	-2.036627	2.189558
N	1.756898	-3.049156	3.042237
O	-1.324787	-7.353131	-2.307845
O	-1.967354	-2.986854	-3.407213
O	2.095892	-5.248946	3.625890
O	1.468685	-0.878829	2.547850
C	-2.330564	-5.563799	-4.043674
H	-2.352178	-6.664085	-4.083407
H	-1.807263	-5.147101	-4.925490
H	-3.356568	-5.148785	-4.031877
C	2.452080	-2.587487	4.247206
H	2.774302	-3.483329	4.803187
H	1.773301	-1.964972	4.860536
H	3.321351	-1.962932	3.966607
C	0.000000	0.000000	0.000000
S	0.509686	0.607733	1.580530
C	1.562368	1.862312	0.904911
C	0.641367	0.764613	-0.985400
C	1.489926	1.776040	-0.493528
H	0.489914	0.584081	-2.059934
H	2.056124	2.450920	-1.152593
H	2.128395	2.537007	1.556025
H	-0.701693	-7.361589	0.578191
H	0.854838	-7.361192	-0.319578
H	-0.935572	-1.478831	0.539540
$end

$rem
JOBTYPE		SP
EXCHANGE	HF
CORRELATION	pRIMP2
BASIS		cc-pvtz
METHOD		rimp2
AUX_BASIS	rimp2-cc-pvtz
SOLVENT_METHOD	PCM
PURECART	11111
SYMMETRY	false
MEM_TOTAL	110000
SCF_CONVERGENCE = 6
THRESH=10
GUI = 2
$end

$solvent
dielectric 4.90
$end
--------------------------------------------------------------

             Standard Nuclear Orientation (Angstroms)
    I     Atom           X                Y                Z
 ----------------------------------------------------------------
    1      C       0.1297430000    -6.7414040000     0.2217660000
    2      C       0.7827260000    -6.1556380000     1.3525150000
    3      C      -0.4119260000    -5.7914520000    -0.7173390000
    4      C       0.9218160000    -4.8037860000     1.5938850000
    5      H       1.2219080000    -6.8215180000     2.1128190000
    6      C      -0.2666820000    -4.3786380000    -0.4643600000
    7      C       0.3982550000    -3.8380320000     0.6880530000
    8      C      -0.7896940000    -3.4130620000    -1.3691080000
    9      C       0.5423490000    -2.4264730000     0.9390020000
   10      C      -0.6525890000    -2.0593480000    -1.1304090000
   11      C       0.0000000000    -1.4782160000     0.0000000000
   12      H      -1.0924530000    -1.3947830000    -1.8914460000
   13      C      -1.1315950000    -6.1879870000    -1.9675190000
   14      C      -1.5049120000    -3.7981640000    -2.6081180000
   15      N      -1.6251740000    -5.1700030000    -2.8198130000
   16      C       1.6391290000    -4.4249870000     2.8361880000
   17      C       1.2634770000    -2.0366270000     2.1895580000
   18      N       1.7568980000    -3.0491560000     3.0422370000
   19      O      -1.3247870000    -7.3531310000    -2.3078450000
   20      O      -1.9673540000    -2.9868540000    -3.4072130000
   21      O       2.0958920000    -5.2489460000     3.6258900000
   22      O       1.4686850000    -0.8788290000     2.5478500000
   23      C      -2.3305640000    -5.5637990000    -4.0436740000
   24      H      -2.3521780000    -6.6640850000    -4.0834070000
   25      H      -1.8072630000    -5.1471010000    -4.9254900000
   26      H      -3.3565680000    -5.1487850000    -4.0318770000
   27      C       2.4520800000    -2.5874870000     4.2472060000
   28      H       2.7743020000    -3.4833290000     4.8031870000
   29      H       1.7733010000    -1.9649720000     4.8605360000
   30      H       3.3213510000    -1.9629320000     3.9666070000
   31      C       0.0000000000     0.0000000000     0.0000000000
   32      S       0.5096860000     0.6077330000     1.5805300000
   33      C       1.5623680000     1.8623120000     0.9049110000
   34      C       0.6413670000     0.7646130000    -0.9854000000
   35      C       1.4899260000     1.7760400000    -0.4935280000
   36      H       0.4899140000     0.5840810000    -2.0599340000
   37      H       2.0561240000     2.4509200000    -1.1525930000
   38      H       2.1283950000     2.5370070000     1.5560250000
   39      H      -0.7016930000    -7.3615890000     0.5781910000
   40      H       0.8548380000    -7.3611920000    -0.3195780000
   41      H      -0.9355720000    -1.4788310000     0.5395400000
 ----------------------------------------------------------------

   11   -1571.6150780941      7.52e-07  Convergence criterion met
 Total energy in the final basis set =    -1571.6150780941
        RIMP2         total energy =     -1576.3074496217 a.u.

                    Orbital Energies (a.u.)
 --------------------------------------------------------------

 Alpha MOs
 -- Occupied --
-91.9899 -20.5637 -20.5485 -20.5406 -20.5393 -15.6354 -15.6207 -11.4088
-11.3893 -11.3828 -11.3779 -11.3126 -11.3081 -11.3063 -11.3052 -11.3005
-11.2824 -11.2707 -11.2692 -11.2681 -11.2675 -11.2630 -11.2625 -11.2591
-11.2539 -11.2368 -11.2299  -8.9892  -6.6697  -6.6683  -6.6671  -1.4465
 -1.4113  -1.4067  -1.3904  -1.2732  -1.2550  -1.2294  -1.1839  -1.1446
 -1.1147  -1.0839  -1.0487  -0.9953  -0.9898  -0.9786  -0.9570  -0.9463
 -0.9011  -0.8880  -0.8802  -0.8629  -0.7891  -0.7844  -0.7769  -0.7595
 -0.7336  -0.7281  -0.7023  -0.6919  -0.6869  -0.6741  -0.6680  -0.6592
 -0.6529  -0.6445  -0.6381  -0.6323  -0.6320  -0.6299  -0.6261  -0.6051
 -0.5892  -0.5773  -0.5668  -0.5641  -0.5572  -0.5553  -0.5527  -0.5487
 -0.5475  -0.5451  -0.5243  -0.5138  -0.5106  -0.4866  -0.4699  -0.4623
 -0.4544  -0.4430  -0.4406  -0.4269  -0.4090  -0.4071  -0.3546  -0.3257
 -0.2825  -0.2736

          Ground-State Mulliken Net Atomic Charges

     Atom                 Charge (a.u.)
  ----------------------------------------
      1 C                    -0.085036
      2 C                    -0.023494
      3 C                    -0.115628
      4 C                    -0.123206
      5 H                     0.200067
      6 C                     0.019341
      7 C                     0.131180
      8 C                    -0.100626
      9 C                    -0.264867
     10 C                    -0.141918
     11 C                     0.206400
     12 H                     0.193644
     13 C                     0.342518
     14 C                     0.346175
     15 N                    -0.089329
     16 C                     0.359216
     17 C                     0.433162
     18 N                    -0.085434
     19 O                    -0.496727
     20 O                    -0.508975
     21 O                    -0.497452
     22 O                    -0.415043
     23 C                    -0.205108
     24 H                     0.139267
     25 H                     0.109100
     26 H                     0.109062
     27 C                    -0.199332
     28 H                     0.136125
     29 H                     0.113676
     30 H                     0.113754
     31 C                    -0.119684
     32 S                     0.115255
     33 C                    -0.235188
     34 C                    -0.168109
     35 C                    -0.258331
     36 H                     0.183382
     37 H                     0.181642
     38 H                     0.204700
     39 H                     0.138471
     40 H                     0.138839
     41 H                     0.218509
  ----------------------------------------
  Sum of atomic charges =     0.000000

                    Cartesian Multipole Moments
 -----------------------------------------------------------------
    Charge (ESU x 10^10)
                 0.0000
    Dipole Moment (Debye)
         X       1.9505      Y       0.0025      Z       2.9954
       Tot       3.5744
    Quadrupole Moments (Debye-Ang)
        XX    -166.0935     XY      -0.5295     YY    -182.6941
        XZ     -10.3244     YZ     -10.4449     ZZ    -176.6168

 Total job time:  307.18s(wall), 9091.88s(cpu)
        *  Thank you very much for using Q-Chem.  Have a nice day.  *
