 Q-Chem 5.4, Q-Chem, Inc., Pleasanton, CA (2021)
 Q-Chem 5.4.0 for Intel X86 EM64T Linux

User input:
--------------------------------------------------------------
$molecule
0 1
C	-0.166281	-6.741404	-0.195868
C	-1.005696	-6.155638	-1.196048
C	0.530233	-5.791452	0.634911
C	-1.184587	-4.803786	-1.409599
H	-1.570232	-6.821518	-1.868538
C	0.343266	-4.378638	0.410996
C	-0.511683	-3.838032	-0.608444
C	1.015440	-3.413062	1.211179
C	-0.697165	-2.426473	-0.830559
C	0.838968	-2.059348	0.999915
C	0.000000	-1.478216	0.000000
H	1.404302	-1.394783	1.673009
C	1.456059	-6.187987	1.741129
C	1.934944	-3.798164	2.307170
N	2.090139	-5.170003	2.494766
C	-2.106725	-4.424987	-2.508468
C	-1.624494	-2.036627	-1.936893
N	-2.258486	-3.049156	-2.690936
O	1.705414	-7.353131	2.042736
O	2.529122	-2.986854	3.013823
O	-2.693680	-5.248946	-3.206857
O	-1.888802	-0.878829	-2.254108
C	2.997334	-5.563799	3.577543
H	3.025519	-6.664085	3.612920
H	2.635109	-5.147101	4.536833
H	4.005702	-5.148785	3.387762
C	-3.152347	-2.587487	-3.756883
H	-3.566218	-3.483329	-4.248464
H	-2.590383	-1.964972	-4.478763
H	-3.959687	-1.962932	-3.329599
C	0.000000	0.000000	0.000000
S	0.509686	0.607733	1.580530
C	1.562368	1.862312	0.904911
C	0.641367	0.764613	-0.985400
C	1.489926	1.776040	-0.493528
H	0.489914	0.584081	-2.059934
H	2.056124	2.450920	-1.152593
H	2.128395	2.537007	1.556025
H	0.590631	-7.361589	-0.691254
H	-0.786357	-7.361192	0.463164
H	0.827669	-1.478831	-0.693804
$end

$rem
JOBTYPE		SP
EXCHANGE	HF
CORRELATION	pRIMP2
BASIS		cc-pvtz
METHOD		rimp2
AUX_BASIS	rimp2-cc-pvtz
SOLVENT_METHOD	PCM
PURECART	11111
SYMMETRY	false
MEM_TOTAL	110000
SCF_CONVERGENCE = 6
THRESH=10
GUI = 2
$end

$solvent
dielectric 4.90
$end
--------------------------------------------------------------

             Standard Nuclear Orientation (Angstroms)
    I     Atom           X                Y                Z
 ----------------------------------------------------------------
    1      C      -0.1662810000    -6.7414040000    -0.1958680000
    2      C      -1.0056960000    -6.1556380000    -1.1960480000
    3      C       0.5302330000    -5.7914520000     0.6349110000
    4      C      -1.1845870000    -4.8037860000    -1.4095990000
    5      H      -1.5702320000    -6.8215180000    -1.8685380000
    6      C       0.3432660000    -4.3786380000     0.4109960000
    7      C      -0.5116830000    -3.8380320000    -0.6084440000
    8      C       1.0154400000    -3.4130620000     1.2111790000
    9      C      -0.6971650000    -2.4264730000    -0.8305590000
   10      C       0.8389680000    -2.0593480000     0.9999150000
   11      C       0.0000000000    -1.4782160000     0.0000000000
   12      H       1.4043020000    -1.3947830000     1.6730090000
   13      C       1.4560590000    -6.1879870000     1.7411290000
   14      C       1.9349440000    -3.7981640000     2.3071700000
   15      N       2.0901390000    -5.1700030000     2.4947660000
   16      C      -2.1067250000    -4.4249870000    -2.5084680000
   17      C      -1.6244940000    -2.0366270000    -1.9368930000
   18      N      -2.2584860000    -3.0491560000    -2.6909360000
   19      O       1.7054140000    -7.3531310000     2.0427360000
   20      O       2.5291220000    -2.9868540000     3.0138230000
   21      O      -2.6936800000    -5.2489460000    -3.2068570000
   22      O      -1.8888020000    -0.8788290000    -2.2541080000
   23      C       2.9973340000    -5.5637990000     3.5775430000
   24      H       3.0255190000    -6.6640850000     3.6129200000
   25      H       2.6351090000    -5.1471010000     4.5368330000
   26      H       4.0057020000    -5.1487850000     3.3877620000
   27      C      -3.1523470000    -2.5874870000    -3.7568830000
   28      H      -3.5662180000    -3.4833290000    -4.2484640000
   29      H      -2.5903830000    -1.9649720000    -4.4787630000
   30      H      -3.9596870000    -1.9629320000    -3.3295990000
   31      C       0.0000000000     0.0000000000     0.0000000000
   32      S       0.5096860000     0.6077330000     1.5805300000
   33      C       1.5623680000     1.8623120000     0.9049110000
   34      C       0.6413670000     0.7646130000    -0.9854000000
   35      C       1.4899260000     1.7760400000    -0.4935280000
   36      H       0.4899140000     0.5840810000    -2.0599340000
   37      H       2.0561240000     2.4509200000    -1.1525930000
   38      H       2.1283950000     2.5370070000     1.5560250000
   39      H       0.5906310000    -7.3615890000    -0.6912540000
   40      H      -0.7863570000    -7.3611920000     0.4631640000
   41      H       0.8276690000    -1.4788310000    -0.6938040000
 ----------------------------------------------------------------

   11   -1571.7054662474      5.84e-07  Convergence criterion met
 Total energy in the final basis set =    -1571.7054662474
        RIMP2         total energy =     -1576.3718365553 a.u.

                    Orbital Energies (a.u.)
 --------------------------------------------------------------

 Alpha MOs
 -- Occupied --
-91.9910 -20.5535 -20.5443 -20.5396 -20.5392 -15.6272 -15.6200 -11.3940
-11.3849 -11.3815 -11.3776 -11.3062 -11.3032 -11.3027 -11.3024 -11.2953
-11.2918 -11.2890 -11.2881 -11.2670 -11.2654 -11.2631 -11.2619 -11.2587
-11.2578 -11.2527 -11.2512  -8.9917  -6.6724  -6.6718  -6.6714  -1.4201
 -1.4107  -1.3975  -1.3898  -1.2622  -1.2541  -1.2317  -1.1912  -1.1516
 -1.1125  -1.0849  -1.0459  -0.9974  -0.9917  -0.9869  -0.9546  -0.9483
 -0.8960  -0.8871  -0.8754  -0.8579  -0.7962  -0.7798  -0.7699  -0.7617
 -0.7393  -0.7174  -0.7016  -0.6923  -0.6836  -0.6709  -0.6662  -0.6565
 -0.6463  -0.6461  -0.6355  -0.6317  -0.6296  -0.6267  -0.6215  -0.6039
 -0.5887  -0.5756  -0.5694  -0.5612  -0.5567  -0.5514  -0.5500  -0.5493
 -0.5467  -0.5428  -0.5203  -0.5113  -0.5025  -0.4849  -0.4759  -0.4663
 -0.4565  -0.4509  -0.4415  -0.4333  -0.4135  -0.4064  -0.3542  -0.3500
 -0.3332  -0.2789

          Ground-State Mulliken Net Atomic Charges

     Atom                 Charge (a.u.)
  ----------------------------------------
      1 C                    -0.084886
      2 C                    -0.033183
      3 C                    -0.113947
      4 C                    -0.119682
      5 H                     0.198090
      6 C                     0.016829
      7 C                     0.114356
      8 C                    -0.067152
      9 C                    -0.183589
     10 C                    -0.165520
     11 C                     0.179342
     12 H                     0.194642
     13 C                     0.340315
     14 C                     0.347143
     15 N                    -0.089137
     16 C                     0.356714
     17 C                     0.353666
     18 N                    -0.090592
     19 O                    -0.497645
     20 O                    -0.510212
     21 O                    -0.501698
     22 O                    -0.473684
     23 C                    -0.205376
     24 H                     0.139296
     25 H                     0.108915
     26 H                     0.108527
     27 C                    -0.198054
     28 H                     0.133485
     29 H                     0.110562
     30 H                     0.112329
     31 C                    -0.016558
     32 S                     0.012544
     33 C                    -0.186154
     34 C                    -0.146404
     35 C                    -0.229178
     36 H                     0.193006
     37 H                     0.192648
     38 H                     0.213820
     39 H                     0.136148
     40 H                     0.136419
     41 H                     0.213851
  ----------------------------------------
  Sum of atomic charges =     0.000000

                    Cartesian Multipole Moments
 -----------------------------------------------------------------
    Charge (ESU x 10^10)
                 0.0000
    Dipole Moment (Debye)
         X       1.5331      Y       2.5268      Z      -2.1983
       Tot       3.6834
    Quadrupole Moments (Debye-Ang)
        XX    -171.7746     XY      10.7859     YY    -185.8293
        XZ     -16.1837     YZ       8.7259     ZZ    -175.5478

 Total job time:  299.47s(wall), 8808.86s(cpu)
        *  Thank you very much for using Q-Chem.  Have a nice day.  *
