 Q-Chem 5.4, Q-Chem, Inc., Pleasanton, CA (2021)
 Q-Chem 5.4.0 for Intel X86 EM64T Linux

User input:
--------------------------------------------------------------
$molecule
0 1
C	-0.252767	-6.741404	0.046070
C	-1.538656	-6.155638	0.272935
C	0.814966	-5.791452	-0.141739
C	-1.813042	-4.803786	0.321083
H	-2.403318	-6.821518	0.425592
C	0.527566	-4.378638	-0.091779
C	-0.782769	-3.838032	0.138909
C	1.556632	-3.413062	-0.273808
C	-1.067868	-2.426473	0.188483
C	1.285436	-2.059348	-0.226610
C	0.000000	-1.478216	0.000000
H	2.151019	-1.394783	-0.379657
C	2.235891	-6.187987	-0.390420
C	2.965540	-3.798164	-0.522125
N	3.205600	-5.170003	-0.562731
C	-3.225760	-4.424987	0.570244
C	-2.489646	-2.036627	0.438407
N	-3.459662	-3.049156	0.610438
O	2.621768	-7.353131	-0.455563
O	3.874608	-2.986854	-0.683373
O	-4.124059	-5.248946	0.729367
O	-2.896516	-0.878829	0.508697
C	4.596910	-5.563799	-0.806996
H	4.641640	-6.664085	-0.813717
H	5.246567	-5.147101	-0.013655
H	4.936739	-5.148785	-1.775159
C	-4.829729	-2.587487	0.851572
H	-5.462387	-3.483329	0.964204
H	-5.173914	-1.964972	0.003956
H	-4.863360	-1.962932	1.764390
C	0.000000	0.000000	0.000000
S	0.509686	0.607733	1.580530
C	1.562368	1.862312	0.904911
C	0.641367	0.764613	-0.985400
C	1.489926	1.776040	-0.493528
H	0.489914	0.584081	-2.059934
H	2.056124	2.450920	-1.152593
H	2.128395	2.537007	1.556025
H	-0.303328	-7.361589	-0.857128
H	0.007933	-7.361192	0.912587
H	-0.187017	-1.478831	-1.063684
$end

$rem
JOBTYPE		SP
EXCHANGE	HF
CORRELATION	pRIMP2
BASIS		cc-pvtz
METHOD		rimp2
AUX_BASIS	rimp2-cc-pvtz
SOLVENT_METHOD	PCM
PURECART	11111
SYMMETRY	false
MEM_TOTAL	110000
SCF_CONVERGENCE = 6
THRESH=10
GUI = 2
$end

$solvent
dielectric 4.90
$end
--------------------------------------------------------------

             Standard Nuclear Orientation (Angstroms)
    I     Atom           X                Y                Z
 ----------------------------------------------------------------
    1      C      -0.2527670000    -6.7414040000     0.0460700000
    2      C      -1.5386560000    -6.1556380000     0.2729350000
    3      C       0.8149660000    -5.7914520000    -0.1417390000
    4      C      -1.8130420000    -4.8037860000     0.3210830000
    5      H      -2.4033180000    -6.8215180000     0.4255920000
    6      C       0.5275660000    -4.3786380000    -0.0917790000
    7      C      -0.7827690000    -3.8380320000     0.1389090000
    8      C       1.5566320000    -3.4130620000    -0.2738080000
    9      C      -1.0678680000    -2.4264730000     0.1884830000
   10      C       1.2854360000    -2.0593480000    -0.2266100000
   11      C       0.0000000000    -1.4782160000     0.0000000000
   12      H       2.1510190000    -1.3947830000    -0.3796570000
   13      C       2.2358910000    -6.1879870000    -0.3904200000
   14      C       2.9655400000    -3.7981640000    -0.5221250000
   15      N       3.2056000000    -5.1700030000    -0.5627310000
   16      C      -3.2257600000    -4.4249870000     0.5702440000
   17      C      -2.4896460000    -2.0366270000     0.4384070000
   18      N      -3.4596620000    -3.0491560000     0.6104380000
   19      O       2.6217680000    -7.3531310000    -0.4555630000
   20      O       3.8746080000    -2.9868540000    -0.6833730000
   21      O      -4.1240590000    -5.2489460000     0.7293670000
   22      O      -2.8965160000    -0.8788290000     0.5086970000
   23      C       4.5969100000    -5.5637990000    -0.8069960000
   24      H       4.6416400000    -6.6640850000    -0.8137170000
   25      H       5.2465670000    -5.1471010000    -0.0136550000
   26      H       4.9367390000    -5.1487850000    -1.7751590000
   27      C      -4.8297290000    -2.5874870000     0.8515720000
   28      H      -5.4623870000    -3.4833290000     0.9642040000
   29      H      -5.1739140000    -1.9649720000     0.0039560000
   30      H      -4.8633600000    -1.9629320000     1.7643900000
   31      C       0.0000000000     0.0000000000     0.0000000000
   32      S       0.5096860000     0.6077330000     1.5805300000
   33      C       1.5623680000     1.8623120000     0.9049110000
   34      C       0.6413670000     0.7646130000    -0.9854000000
   35      C       1.4899260000     1.7760400000    -0.4935280000
   36      H       0.4899140000     0.5840810000    -2.0599340000
   37      H       2.0561240000     2.4509200000    -1.1525930000
   38      H       2.1283950000     2.5370070000     1.5560250000
   39      H      -0.3033280000    -7.3615890000    -0.8571280000
   40      H       0.0079330000    -7.3611920000     0.9125870000
   41      H      -0.1870170000    -1.4788310000    -1.0636840000
 ----------------------------------------------------------------

   11   -1571.7252739075      5.44e-07  Convergence criterion met
 Total energy in the final basis set =    -1571.7252739075
        RIMP2         total energy =     -1576.3859794393 a.u.

                    Orbital Energies (a.u.)
 --------------------------------------------------------------

 Alpha MOs
 -- Occupied --
-91.9883 -20.5523 -20.5438 -20.5410 -20.5402 -15.6263 -15.6208 -11.3927
-11.3844 -11.3829 -11.3788 -11.3076 -11.3058 -11.3038 -11.3026 -11.2950
-11.2917 -11.2887 -11.2868 -11.2677 -11.2670 -11.2647 -11.2637 -11.2623
-11.2592 -11.2539 -11.2518  -8.9884  -6.6692  -6.6685  -6.6681  -1.4189
 -1.4118  -1.3966  -1.3909  -1.2614  -1.2550  -1.2300  -1.1896  -1.1529
 -1.1130  -1.0849  -1.0455  -0.9977  -0.9890  -0.9871  -0.9548  -0.9497
 -0.8959  -0.8866  -0.8753  -0.8582  -0.7943  -0.7768  -0.7701  -0.7652
 -0.7423  -0.7168  -0.7042  -0.6911  -0.6819  -0.6714  -0.6661  -0.6567
 -0.6463  -0.6431  -0.6357  -0.6331  -0.6301  -0.6267  -0.6210  -0.6045
 -0.5833  -0.5767  -0.5712  -0.5610  -0.5566  -0.5509  -0.5503  -0.5475
 -0.5463  -0.5431  -0.5233  -0.5111  -0.5042  -0.4818  -0.4748  -0.4613
 -0.4578  -0.4507  -0.4422  -0.4337  -0.4129  -0.4069  -0.3597  -0.3486
 -0.3306  -0.2882

          Ground-State Mulliken Net Atomic Charges

     Atom                 Charge (a.u.)
  ----------------------------------------
      1 C                    -0.085767
      2 C                    -0.033710
      3 C                    -0.111247
      4 C                    -0.119593
      5 H                     0.198109
      6 C                     0.019934
      7 C                     0.121584
      8 C                    -0.108853
      9 C                    -0.193601
     10 C                    -0.091416
     11 C                     0.143974
     12 H                     0.199015
     13 C                     0.343709
     14 C                     0.343878
     15 N                    -0.089575
     16 C                     0.355642
     17 C                     0.351349
     18 N                    -0.091746
     19 O                    -0.495314
     20 O                    -0.508497
     21 O                    -0.501830
     22 O                    -0.469784
     23 C                    -0.205163
     24 H                     0.139514
     25 H                     0.109169
     26 H                     0.108617
     27 C                    -0.197638
     28 H                     0.132975
     29 H                     0.111244
     30 H                     0.111882
     31 C                     0.026786
     32 S                     0.016060
     33 C                    -0.186213
     34 C                    -0.221504
     35 C                    -0.189958
     36 H                     0.190270
     37 H                     0.194916
     38 H                     0.212757
     39 H                     0.136673
     40 H                     0.137022
     41 H                     0.196329
  ----------------------------------------
  Sum of atomic charges =     0.000000

                    Cartesian Multipole Moments
 -----------------------------------------------------------------
    Charge (ESU x 10^10)
                 0.0000
    Dipole Moment (Debye)
         X       0.5473      Y       2.5075      Z      -1.6530
       Tot       3.0528
    Quadrupole Moments (Debye-Ang)
        XX    -190.4341     XY      14.8859     YY    -183.6101
        XZ       6.3362     YZ       0.3497     ZZ    -157.0520

 Total job time:  296.90s(wall), 8938.92s(cpu)
        *  Thank you very much for using Q-Chem.  Have a nice day.  *
