 Q-Chem 5.4, Q-Chem, Inc., Pleasanton, CA (2021)
 Q-Chem 5.4.0 for Intel X86 EM64T Linux

User input:
--------------------------------------------------------------
$molecule
0 1
C	-0.086486	-6.741404	0.241938
C	-0.532960	-6.155638	1.468983
C	0.284733	-5.791452	-0.776651
C	-0.628455	-4.803786	1.730681
H	-0.833086	-6.821518	2.294130
C	0.184300	-4.378638	-0.502775
C	-0.271086	-3.838032	0.747353
C	0.541191	-3.413062	-1.484986
C	-0.370703	-2.426473	1.019042
C	0.446468	-2.059348	-1.226525
C	-0.000000	-1.478216	-0.000000
H	0.746717	-1.394783	-2.052666
C	0.779832	-6.187987	-2.131549
C	1.030596	-3.798164	-2.829295
N	1.115461	-5.170003	-3.057496
C	-1.119034	-4.424987	3.078712
C	-0.865151	-2.036627	2.375300
N	-1.201176	-3.049156	3.301374
O	0.916355	-7.353131	-2.498300
O	1.345486	-2.986854	-3.697195
O	-1.430379	-5.248946	3.936224
O	-1.007714	-0.878829	2.762805
C	1.599576	-5.563799	-4.384539
H	1.616121	-6.664085	-4.426636
H	2.611458	-5.147101	-4.550487
H	0.931037	-5.148785	-5.162921
C	-1.677382	-2.587487	4.608454
H	-1.896168	-3.483329	5.212668
H	-2.583531	-1.964972	4.482719
H	-0.903674	-1.962932	5.093988
C	0.000000	0.000000	0.000000
S	-0.000201	0.793171	1.580530
C	-0.000228	2.430885	0.904911
C	-0.000168	0.997990	-0.985400
C	-0.000267	2.318231	-0.493528
H	-0.000145	0.762343	-2.059934
H	-0.000339	3.199164	-1.152593
H	-0.000311	3.311566	1.556025
H	-0.893959	-7.361589	-0.165874
H	0.794290	-7.361192	0.449423
H	-1.014686	-1.478831	-0.369880
$end

$rem
JOBTYPE		SP
EXCHANGE	HF
CORRELATION	pRIMP2
BASIS		cc-pvtz
METHOD		rimp2
AUX_BASIS	rimp2-cc-pvtz
SOLVENT_METHOD	PCM
PURECART	11111
SYMMETRY	false
MEM_TOTAL	110000
SCF_CONVERGENCE = 6
THRESH=10
GUI = 2
$end

$solvent
dielectric 4.90
$end
--------------------------------------------------------------

             Standard Nuclear Orientation (Angstroms)
    I     Atom           X                Y                Z
 ----------------------------------------------------------------
    1      C      -0.0864860000    -6.7414040000     0.2419380000
    2      C      -0.5329600000    -6.1556380000     1.4689830000
    3      C       0.2847330000    -5.7914520000    -0.7766510000
    4      C      -0.6284550000    -4.8037860000     1.7306810000
    5      H      -0.8330860000    -6.8215180000     2.2941300000
    6      C       0.1843000000    -4.3786380000    -0.5027750000
    7      C      -0.2710860000    -3.8380320000     0.7473530000
    8      C       0.5411910000    -3.4130620000    -1.4849860000
    9      C      -0.3707030000    -2.4264730000     1.0190420000
   10      C       0.4464680000    -2.0593480000    -1.2265250000
   11      C       0.0000000000    -1.4782160000     0.0000000000
   12      H       0.7467170000    -1.3947830000    -2.0526660000
   13      C       0.7798320000    -6.1879870000    -2.1315490000
   14      C       1.0305960000    -3.7981640000    -2.8292950000
   15      N       1.1154610000    -5.1700030000    -3.0574960000
   16      C      -1.1190340000    -4.4249870000     3.0787120000
   17      C      -0.8651510000    -2.0366270000     2.3753000000
   18      N      -1.2011760000    -3.0491560000     3.3013740000
   19      O       0.9163550000    -7.3531310000    -2.4983000000
   20      O       1.3454860000    -2.9868540000    -3.6971950000
   21      O      -1.4303790000    -5.2489460000     3.9362240000
   22      O      -1.0077140000    -0.8788290000     2.7628050000
   23      C       1.5995760000    -5.5637990000    -4.3845390000
   24      H       1.6161210000    -6.6640850000    -4.4266360000
   25      H       2.6114580000    -5.1471010000    -4.5504870000
   26      H       0.9310370000    -5.1487850000    -5.1629210000
   27      C      -1.6773820000    -2.5874870000     4.6084540000
   28      H      -1.8961680000    -3.4833290000     5.2126680000
   29      H      -2.5835310000    -1.9649720000     4.4827190000
   30      H      -0.9036740000    -1.9629320000     5.0939880000
   31      C       0.0000000000     0.0000000000     0.0000000000
   32      S      -0.0002010000     0.7931710000     1.5805300000
   33      C      -0.0002280000     2.4308850000     0.9049110000
   34      C      -0.0001680000     0.9979900000    -0.9854000000
   35      C      -0.0002670000     2.3182310000    -0.4935280000
   36      H      -0.0001450000     0.7623430000    -2.0599340000
   37      H      -0.0003390000     3.1991640000    -1.1525930000
   38      H      -0.0003110000     3.3115660000     1.5560250000
   39      H      -0.8939590000    -7.3615890000    -0.1658740000
   40      H       0.7942900000    -7.3611920000     0.4494230000
   41      H      -1.0146860000    -1.4788310000    -0.3698800000
 ----------------------------------------------------------------

   11   -1571.7090332160      5.96e-07  Convergence criterion met
 Total energy in the final basis set =    -1571.7090332160
        RIMP2         total energy =     -1576.3753786946 a.u.

                    Orbital Energies (a.u.)
 --------------------------------------------------------------

 Alpha MOs
 -- Occupied --
-91.9727 -20.5543 -20.5465 -20.5429 -20.5417 -15.6302 -15.6224 -11.3992
-11.3872 -11.3848 -11.3803 -11.3128 -11.3101 -11.3087 -11.3063 -11.2994
-11.2956 -11.2922 -11.2713 -11.2703 -11.2667 -11.2647 -11.2601 -11.2597
-11.2545 -11.2458 -11.2380  -8.9727  -6.6532  -6.6521  -6.6514  -1.4287
 -1.4133  -1.4022  -1.3925  -1.2666  -1.2567  -1.2318  -1.1856  -1.1465
 -1.1161  -1.0870  -1.0494  -0.9942  -0.9894  -0.9753  -0.9565  -0.9482
 -0.8982  -0.8910  -0.8796  -0.8629  -0.7925  -0.7810  -0.7747  -0.7574
 -0.7332  -0.7229  -0.7023  -0.6895  -0.6866  -0.6772  -0.6684  -0.6591
 -0.6509  -0.6476  -0.6374  -0.6335  -0.6333  -0.6325  -0.6225  -0.6060
 -0.5888  -0.5724  -0.5656  -0.5624  -0.5566  -0.5538  -0.5528  -0.5499
 -0.5488  -0.5455  -0.5195  -0.5138  -0.5124  -0.4852  -0.4809  -0.4637
 -0.4562  -0.4451  -0.4380  -0.4223  -0.4088  -0.4034  -0.3554  -0.3332
 -0.3265  -0.2781

          Ground-State Mulliken Net Atomic Charges

     Atom                 Charge (a.u.)
  ----------------------------------------
      1 C                    -0.084118
      2 C                    -0.028577
      3 C                    -0.107632
      4 C                    -0.124550
      5 H                     0.200119
      6 C                     0.023687
      7 C                     0.135587
      8 C                    -0.087286
      9 C                    -0.185668
     10 C                    -0.176469
     11 C                     0.232635
     12 H                     0.192270
     13 C                     0.342307
     14 C                     0.351535
     15 N                    -0.090308
     16 C                     0.358716
     17 C                     0.381978
     18 N                    -0.090197
     19 O                    -0.493317
     20 O                    -0.507215
     21 O                    -0.499856
     22 O                    -0.458966
     23 C                    -0.204635
     24 H                     0.139640
     25 H                     0.109624
     26 H                     0.109332
     27 C                    -0.198379
     28 H                     0.134593
     29 H                     0.112355
     30 H                     0.113126
     31 C                    -0.062980
     32 S                     0.073383
     33 C                    -0.248820
     34 C                    -0.178284
     35 C                    -0.242789
     36 H                     0.178821
     37 H                     0.181901
     38 H                     0.203471
     39 H                     0.138756
     40 H                     0.139268
     41 H                     0.216942
  ----------------------------------------
  Sum of atomic charges =     0.000000

                    Cartesian Multipole Moments
 -----------------------------------------------------------------
    Charge (ESU x 10^10)
                 0.0000
    Dipole Moment (Debye)
         X      -1.5676      Y       0.3313      Z       0.6655
       Tot       1.7350
    Quadrupole Moments (Debye-Ang)
        XX    -166.1971     XY       4.4903     YY    -177.1155
        XZ       9.5246     YZ      -8.0835     ZZ    -183.2920

 Total job time:  313.98s(wall), 9011.13s(cpu)
        *  Thank you very much for using Q-Chem.  Have a nice day.  *
