 Q-Chem 5.4, Q-Chem, Inc., Pleasanton, CA (2021)
 Q-Chem 5.4.0 for Intel X86 EM64T Linux

User input:
--------------------------------------------------------------
$molecule
0 1
C	0.089263	-6.741404	0.240927
C	0.535973	-6.155638	1.467886
C	-0.281103	-5.791452	-0.777972
C	0.631036	-4.803786	1.729742
H	0.836458	-6.821518	2.292903
C	-0.181995	-4.378638	-0.503614
C	0.272725	-3.838032	0.746756
C	-0.539954	-3.413062	-1.485437
C	0.371053	-2.426473	1.018915
C	-0.446381	-2.059348	-1.226557
C	-0.000000	-1.478216	-0.000000
H	-0.747410	-1.394783	-2.052413
C	-0.772747	-6.187987	-2.134128
C	-1.029154	-3.798164	-2.829820
N	-1.110828	-5.170003	-3.059182
C	1.121728	-4.424987	3.077731
C	0.864069	-2.036627	2.375694
N	1.201928	-3.049156	3.301101
O	-0.903908	-7.353131	-2.502830
O	-1.345809	-2.986854	-3.697078
O	1.434422	-5.248946	3.934752
O	1.003943	-0.878829	2.764177
C	-1.592981	-5.563799	-4.386939
H	-1.607367	-6.664085	-4.429822
H	-0.924504	-5.147101	-5.164489
H	-2.605446	-5.148785	-4.553486
C	1.677308	-2.587487	4.608481
H	1.898089	-3.483329	5.211969
H	0.902337	-1.964972	5.094624
H	2.582098	-1.962932	4.483092
C	0.000000	0.000000	0.000000
S	0.686805	0.396760	1.580530
C	2.105095	1.215640	0.904911
C	0.864201	0.499140	-0.985400
C	2.007514	1.159347	-0.493528
H	0.660136	0.381296	-2.059934
H	2.770388	1.599875	-1.152593
H	2.867745	1.656053	1.556025
H	-0.791434	-7.361589	0.447559
H	0.897345	-7.361192	-0.166282
H	-1.015049	-1.478831	0.368883
$end

$rem
JOBTYPE		SP
EXCHANGE	HF
CORRELATION	pRIMP2
BASIS		cc-pvtz
METHOD		rimp2
AUX_BASIS	rimp2-cc-pvtz
SOLVENT_METHOD	PCM
PURECART	11111
SYMMETRY	false
MEM_TOTAL	110000
SCF_CONVERGENCE = 6
THRESH=10
GUI = 2
$end

$solvent
dielectric 4.90
$end
--------------------------------------------------------------

             Standard Nuclear Orientation (Angstroms)
    I     Atom           X                Y                Z
 ----------------------------------------------------------------
    1      C       0.0892630000    -6.7414040000     0.2409270000
    2      C       0.5359730000    -6.1556380000     1.4678860000
    3      C      -0.2811030000    -5.7914520000    -0.7779720000
    4      C       0.6310360000    -4.8037860000     1.7297420000
    5      H       0.8364580000    -6.8215180000     2.2929030000
    6      C      -0.1819950000    -4.3786380000    -0.5036140000
    7      C       0.2727250000    -3.8380320000     0.7467560000
    8      C      -0.5399540000    -3.4130620000    -1.4854370000
    9      C       0.3710530000    -2.4264730000     1.0189150000
   10      C      -0.4463810000    -2.0593480000    -1.2265570000
   11      C       0.0000000000    -1.4782160000     0.0000000000
   12      H      -0.7474100000    -1.3947830000    -2.0524130000
   13      C      -0.7727470000    -6.1879870000    -2.1341280000
   14      C      -1.0291540000    -3.7981640000    -2.8298200000
   15      N      -1.1108280000    -5.1700030000    -3.0591820000
   16      C       1.1217280000    -4.4249870000     3.0777310000
   17      C       0.8640690000    -2.0366270000     2.3756940000
   18      N       1.2019280000    -3.0491560000     3.3011010000
   19      O      -0.9039080000    -7.3531310000    -2.5028300000
   20      O      -1.3458090000    -2.9868540000    -3.6970780000
   21      O       1.4344220000    -5.2489460000     3.9347520000
   22      O       1.0039430000    -0.8788290000     2.7641770000
   23      C      -1.5929810000    -5.5637990000    -4.3869390000
   24      H      -1.6073670000    -6.6640850000    -4.4298220000
   25      H      -0.9245040000    -5.1471010000    -5.1644890000
   26      H      -2.6054460000    -5.1487850000    -4.5534860000
   27      C       1.6773080000    -2.5874870000     4.6084810000
   28      H       1.8980890000    -3.4833290000     5.2119690000
   29      H       0.9023370000    -1.9649720000     5.0946240000
   30      H       2.5820980000    -1.9629320000     4.4830920000
   31      C       0.0000000000     0.0000000000     0.0000000000
   32      S       0.6868050000     0.3967600000     1.5805300000
   33      C       2.1050950000     1.2156400000     0.9049110000
   34      C       0.8642010000     0.4991400000    -0.9854000000
   35      C       2.0075140000     1.1593470000    -0.4935280000
   36      H       0.6601360000     0.3812960000    -2.0599340000
   37      H       2.7703880000     1.5998750000    -1.1525930000
   38      H       2.8677450000     1.6560530000     1.5560250000
   39      H      -0.7914340000    -7.3615890000     0.4475590000
   40      H       0.8973450000    -7.3611920000    -0.1662820000
   41      H      -1.0150490000    -1.4788310000     0.3688830000
 ----------------------------------------------------------------

   11   -1571.5052588217      7.68e-07  Convergence criterion met
 Total energy in the final basis set =    -1571.5052588217
        RIMP2         total energy =     -1576.2135404368 a.u.

                    Orbital Energies (a.u.)
 --------------------------------------------------------------

 Alpha MOs
 -- Occupied --
-92.0234 -20.6184 -20.5568 -20.5400 -20.5376 -15.6538 -15.6206 -11.4382
-11.3986 -11.3827 -11.3765 -11.3211 -11.3128 -11.3091 -11.3069 -11.3042
-11.2765 -11.2763 -11.2748 -11.2689 -11.2602 -11.2588 -11.2573 -11.2473
-11.2273 -11.2231 -11.2134  -9.0187  -6.7002  -6.6972  -6.6951  -1.5089
 -1.4174  -1.4106  -1.3896  -1.2934  -1.2548  -1.2322  -1.1871  -1.1437
 -1.1180  -1.0833  -1.0541  -1.0089  -0.9969  -0.9841  -0.9615  -0.9437
 -0.9120  -0.8880  -0.8855  -0.8662  -0.8096  -0.7969  -0.7814  -0.7617
 -0.7501  -0.7259  -0.7052  -0.6971  -0.6916  -0.6879  -0.6717  -0.6616
 -0.6593  -0.6478  -0.6419  -0.6355  -0.6335  -0.6300  -0.6271  -0.6163
 -0.6050  -0.5964  -0.5782  -0.5695  -0.5639  -0.5551  -0.5485  -0.5477
 -0.5459  -0.5424  -0.5391  -0.5136  -0.5101  -0.4879  -0.4721  -0.4612
 -0.4532  -0.4444  -0.4410  -0.4290  -0.4067  -0.3963  -0.3590  -0.3254
 -0.2746  -0.2364

          Ground-State Mulliken Net Atomic Charges

     Atom                 Charge (a.u.)
  ----------------------------------------
      1 C                    -0.085832
      2 C                    -0.008292
      3 C                    -0.119060
      4 C                    -0.125274
      5 H                     0.203285
      6 C                     0.023618
      7 C                     0.162606
      8 C                    -0.105122
      9 C                    -0.278356
     10 C                    -0.147451
     11 C                     0.183528
     12 H                     0.193782
     13 C                     0.342383
     14 C                     0.344761
     15 N                    -0.088794
     16 C                     0.365141
     17 C                     0.421343
     18 N                    -0.074650
     19 O                    -0.498864
     20 O                    -0.510590
     21 O                    -0.487900
     22 O                    -0.304520
     23 C                    -0.205446
     24 H                     0.138972
     25 H                     0.109536
     26 H                     0.109228
     27 C                    -0.198390
     28 H                     0.140307
     29 H                     0.118177
     30 H                     0.118426
     31 C                    -0.200898
     32 S                     0.224943
     33 C                    -0.352029
     34 C                    -0.224310
     35 C                    -0.247190
     36 H                     0.175492
     37 H                     0.177428
     38 H                     0.196340
     39 H                     0.141718
     40 H                     0.142076
     41 H                     0.229874
  ----------------------------------------
  Sum of atomic charges =     0.000000

                    Cartesian Multipole Moments
 -----------------------------------------------------------------
    Charge (ESU x 10^10)
                 0.0000
    Dipole Moment (Debye)
         X       1.8481      Y      -2.9484      Z       6.0279
       Tot       6.9602
    Quadrupole Moments (Debye-Ang)
        XX    -161.2017     XY      -2.5257     YY    -178.3257
        XZ      -4.1775     YZ     -17.8901     ZZ    -173.1525

 Total job time:  307.21s(wall), 8925.83s(cpu)
        *  Thank you very much for using Q-Chem.  Have a nice day.  *
