 Q-Chem 5.4, Q-Chem, Inc., Pleasanton, CA (2021)
 Q-Chem 5.4.0 for Intel X86 EM64T Linux

User input:
--------------------------------------------------------------
$molecule
0 1
C	0.046070	-6.741404	0.252767
C	0.272935	-6.155638	1.538656
C	-0.141739	-5.791452	-0.814966
C	0.321083	-4.803786	1.813042
H	0.425592	-6.821518	2.403318
C	-0.091779	-4.378638	-0.527566
C	0.138909	-3.838032	0.782769
C	-0.273808	-3.413062	-1.556632
C	0.188483	-2.426473	1.067868
C	-0.226610	-2.059348	-1.285436
C	0.000000	-1.478216	0.000000
H	-0.379657	-1.394783	-2.151019
C	-0.390420	-6.187987	-2.235891
C	-0.522125	-3.798164	-2.965540
N	-0.562731	-5.170003	-3.205600
C	0.570244	-4.424987	3.225760
C	0.438407	-2.036627	2.489646
N	0.610438	-3.049156	3.459662
O	-0.455563	-7.353131	-2.621768
O	-0.683373	-2.986854	-3.874608
O	0.729367	-5.248946	4.124059
O	0.508697	-0.878829	2.896516
C	-0.806996	-5.563799	-4.596910
H	-0.813717	-6.664085	-4.641640
H	-0.013655	-5.147101	-5.246567
H	-1.775159	-5.148785	-4.936739
C	0.851572	-2.587487	4.829729
H	0.964204	-3.483329	5.462387
H	0.003956	-1.964972	5.173914
H	1.764390	-1.962932	4.863360
C	0.000000	0.000000	0.000000
S	0.137535	0.781156	1.580530
C	0.421895	2.393994	0.904911
C	0.173134	0.982857	-0.985400
C	0.402294	2.283058	-0.493528
H	0.132237	0.750786	-2.059934
H	0.555196	3.150621	-1.152593
H	0.574741	3.261310	1.556025
H	-0.857128	-7.361589	0.303328
H	0.912587	-7.361192	-0.007933
H	-1.063684	-1.478831	0.187017
$end

$rem
JOBTYPE		SP
EXCHANGE	HF
CORRELATION	pRIMP2
BASIS		cc-pvtz
METHOD		rimp2
AUX_BASIS	rimp2-cc-pvtz
SOLVENT_METHOD	PCM
PURECART	11111
SYMMETRY	false
MEM_TOTAL	110000
SCF_CONVERGENCE = 6
THRESH=10
GUI = 2
$end

$solvent
dielectric 4.90
$end
--------------------------------------------------------------

             Standard Nuclear Orientation (Angstroms)
    I     Atom           X                Y                Z
 ----------------------------------------------------------------
    1      C       0.0460700000    -6.7414040000     0.2527670000
    2      C       0.2729350000    -6.1556380000     1.5386560000
    3      C      -0.1417390000    -5.7914520000    -0.8149660000
    4      C       0.3210830000    -4.8037860000     1.8130420000
    5      H       0.4255920000    -6.8215180000     2.4033180000
    6      C      -0.0917790000    -4.3786380000    -0.5275660000
    7      C       0.1389090000    -3.8380320000     0.7827690000
    8      C      -0.2738080000    -3.4130620000    -1.5566320000
    9      C       0.1884830000    -2.4264730000     1.0678680000
   10      C      -0.2266100000    -2.0593480000    -1.2854360000
   11      C       0.0000000000    -1.4782160000     0.0000000000
   12      H      -0.3796570000    -1.3947830000    -2.1510190000
   13      C      -0.3904200000    -6.1879870000    -2.2358910000
   14      C      -0.5221250000    -3.7981640000    -2.9655400000
   15      N      -0.5627310000    -5.1700030000    -3.2056000000
   16      C       0.5702440000    -4.4249870000     3.2257600000
   17      C       0.4384070000    -2.0366270000     2.4896460000
   18      N       0.6104380000    -3.0491560000     3.4596620000
   19      O      -0.4555630000    -7.3531310000    -2.6217680000
   20      O      -0.6833730000    -2.9868540000    -3.8746080000
   21      O       0.7293670000    -5.2489460000     4.1240590000
   22      O       0.5086970000    -0.8788290000     2.8965160000
   23      C      -0.8069960000    -5.5637990000    -4.5969100000
   24      H      -0.8137170000    -6.6640850000    -4.6416400000
   25      H      -0.0136550000    -5.1471010000    -5.2465670000
   26      H      -1.7751590000    -5.1487850000    -4.9367390000
   27      C       0.8515720000    -2.5874870000     4.8297290000
   28      H       0.9642040000    -3.4833290000     5.4623870000
   29      H       0.0039560000    -1.9649720000     5.1739140000
   30      H       1.7643900000    -1.9629320000     4.8633600000
   31      C       0.0000000000     0.0000000000     0.0000000000
   32      S       0.1375350000     0.7811560000     1.5805300000
   33      C       0.4218950000     2.3939940000     0.9049110000
   34      C       0.1731340000     0.9828570000    -0.9854000000
   35      C       0.4022940000     2.2830580000    -0.4935280000
   36      H       0.1322370000     0.7507860000    -2.0599340000
   37      H       0.5551960000     3.1506210000    -1.1525930000
   38      H       0.5747410000     3.2613100000     1.5560250000
   39      H      -0.8571280000    -7.3615890000     0.3033280000
   40      H       0.9125870000    -7.3611920000    -0.0079330000
   41      H      -1.0636840000    -1.4788310000     0.1870170000
 ----------------------------------------------------------------

   11   -1571.6880813462      6.01e-07  Convergence criterion met
 Total energy in the final basis set =    -1571.6880813462
        RIMP2         total energy =     -1576.3580791178 a.u.

                    Orbital Energies (a.u.)
 --------------------------------------------------------------

 Alpha MOs
 -- Occupied --
-91.9687 -20.5572 -20.5473 -20.5428 -20.5418 -15.6319 -15.6225 -11.4024
-11.3881 -11.3848 -11.3804 -11.3132 -11.3102 -11.3097 -11.3065 -11.2998
-11.2924 -11.2914 -11.2712 -11.2707 -11.2671 -11.2655 -11.2601 -11.2546
-11.2543 -11.2452 -11.2351  -8.9688  -6.6494  -6.6479  -6.6469  -1.4343
 -1.4134  -1.4041  -1.3925  -1.2689  -1.2568  -1.2320  -1.1854  -1.1452
 -1.1164  -1.0868  -1.0499  -0.9949  -0.9898  -0.9743  -0.9570  -0.9475
 -0.8994  -0.8916  -0.8804  -0.8637  -0.7923  -0.7826  -0.7766  -0.7584
 -0.7313  -0.7273  -0.7014  -0.6905  -0.6890  -0.6757  -0.6694  -0.6596
 -0.6522  -0.6458  -0.6385  -0.6339  -0.6334  -0.6326  -0.6240  -0.6065
 -0.5904  -0.5720  -0.5671  -0.5636  -0.5557  -0.5539  -0.5534  -0.5502
 -0.5488  -0.5459  -0.5210  -0.5142  -0.5125  -0.4884  -0.4797  -0.4646
 -0.4565  -0.4451  -0.4386  -0.4204  -0.4088  -0.3865  -0.3559  -0.3309
 -0.3262  -0.2766

          Ground-State Mulliken Net Atomic Charges

     Atom                 Charge (a.u.)
  ----------------------------------------
      1 C                    -0.084259
      2 C                    -0.028266
      3 C                    -0.106848
      4 C                    -0.121697
      5 H                     0.199932
      6 C                     0.025536
      7 C                     0.123846
      8 C                    -0.105671
      9 C                    -0.204533
     10 C                    -0.133154
     11 C                     0.220157
     12 H                     0.195397
     13 C                     0.342870
     14 C                     0.350114
     15 N                    -0.090315
     16 C                     0.359095
     17 C                     0.391642
     18 N                    -0.088236
     19 O                    -0.493505
     20 O                    -0.507132
     21 O                    -0.498736
     22 O                    -0.439499
     23 C                    -0.204719
     24 H                     0.139739
     25 H                     0.109619
     26 H                     0.109342
     27 C                    -0.199347
     28 H                     0.135214
     29 H                     0.113004
     30 H                     0.113595
     31 C                    -0.063117
     32 S                     0.066132
     33 C                    -0.255547
     34 C                    -0.172954
     35 C                    -0.249048
     36 H                     0.179366
     37 H                     0.178880
     38 H                     0.200958
     39 H                     0.138875
     40 H                     0.139187
     41 H                     0.214087
  ----------------------------------------
  Sum of atomic charges =     0.000000

                    Cartesian Multipole Moments
 -----------------------------------------------------------------
    Charge (ESU x 10^10)
                 0.0000
    Dipole Moment (Debye)
         X      -0.2898      Y      -0.0373      Z       1.4807
       Tot       1.5093
    Quadrupole Moments (Debye-Ang)
        XX    -163.2887     XY       0.9808     YY    -177.6230
        XZ      -4.7252     YZ      -9.9409     ZZ    -184.9401

 Total job time:  331.99s(wall), 10235.30s(cpu)
        *  Thank you very much for using Q-Chem.  Have a nice day.  *
