 Q-Chem 5.4, Q-Chem, Inc., Pleasanton, CA (2021)
 Q-Chem 5.4.0 for Intel X86 EM64T Linux

User input:
--------------------------------------------------------------
$molecule
0 1
C	0.046070	-6.741404	0.252767
C	0.272935	-6.155638	1.538656
C	-0.141739	-5.791452	-0.814966
C	0.321083	-4.803786	1.813042
H	0.425592	-6.821518	2.403318
C	-0.091779	-4.378638	-0.527566
C	0.138909	-3.838032	0.782769
C	-0.273808	-3.413062	-1.556632
C	0.188483	-2.426473	1.067868
C	-0.226610	-2.059348	-1.285436
C	-0.000000	-1.478216	-0.000000
H	-0.379657	-1.394783	-2.151019
C	-0.390420	-6.187987	-2.235891
C	-0.522125	-3.798164	-2.965540
N	-0.562731	-5.170003	-3.205600
C	0.570244	-4.424987	3.225760
C	0.438407	-2.036627	2.489646
N	0.610438	-3.049156	3.459662
O	-0.455563	-7.353131	-2.621768
O	-0.683373	-2.986854	-3.874608
O	0.729367	-5.248946	4.124059
O	0.508697	-0.878829	2.896516
C	-0.806996	-5.563799	-4.596910
H	-0.813717	-6.664085	-4.641640
H	-0.013655	-5.147101	-5.246567
H	-1.775159	-5.148785	-4.936739
C	0.851572	-2.587487	4.829729
H	0.964204	-3.483329	5.462387
H	0.003956	-1.964972	5.173914
H	1.764390	-1.962932	4.863360
C	0.000000	0.000000	0.000000
S	0.271091	0.745405	1.580530
C	0.831198	2.284363	0.904911
C	0.341175	0.937861	-0.985400
C	0.792631	2.178516	-0.493528
H	0.260601	0.716417	-2.059934
H	1.093860	3.006347	-1.152593
H	1.132330	3.111961	1.556025
H	-0.857128	-7.361589	0.303328
H	0.912587	-7.361192	-0.007933
H	-1.063684	-1.478831	0.187017
$end

$rem
JOBTYPE		SP
EXCHANGE	HF
CORRELATION	pRIMP2
BASIS		cc-pvtz
METHOD		rimp2
AUX_BASIS	rimp2-cc-pvtz
SOLVENT_METHOD	PCM
PURECART	11111
SYMMETRY	false
MEM_TOTAL	110000
SCF_CONVERGENCE = 6
THRESH=10
GUI = 2
$end

$solvent
dielectric 4.90
$end
--------------------------------------------------------------

             Standard Nuclear Orientation (Angstroms)
    I     Atom           X                Y                Z
 ----------------------------------------------------------------
    1      C       0.0460700000    -6.7414040000     0.2527670000
    2      C       0.2729350000    -6.1556380000     1.5386560000
    3      C      -0.1417390000    -5.7914520000    -0.8149660000
    4      C       0.3210830000    -4.8037860000     1.8130420000
    5      H       0.4255920000    -6.8215180000     2.4033180000
    6      C      -0.0917790000    -4.3786380000    -0.5275660000
    7      C       0.1389090000    -3.8380320000     0.7827690000
    8      C      -0.2738080000    -3.4130620000    -1.5566320000
    9      C       0.1884830000    -2.4264730000     1.0678680000
   10      C      -0.2266100000    -2.0593480000    -1.2854360000
   11      C       0.0000000000    -1.4782160000     0.0000000000
   12      H      -0.3796570000    -1.3947830000    -2.1510190000
   13      C      -0.3904200000    -6.1879870000    -2.2358910000
   14      C      -0.5221250000    -3.7981640000    -2.9655400000
   15      N      -0.5627310000    -5.1700030000    -3.2056000000
   16      C       0.5702440000    -4.4249870000     3.2257600000
   17      C       0.4384070000    -2.0366270000     2.4896460000
   18      N       0.6104380000    -3.0491560000     3.4596620000
   19      O      -0.4555630000    -7.3531310000    -2.6217680000
   20      O      -0.6833730000    -2.9868540000    -3.8746080000
   21      O       0.7293670000    -5.2489460000     4.1240590000
   22      O       0.5086970000    -0.8788290000     2.8965160000
   23      C      -0.8069960000    -5.5637990000    -4.5969100000
   24      H      -0.8137170000    -6.6640850000    -4.6416400000
   25      H      -0.0136550000    -5.1471010000    -5.2465670000
   26      H      -1.7751590000    -5.1487850000    -4.9367390000
   27      C       0.8515720000    -2.5874870000     4.8297290000
   28      H       0.9642040000    -3.4833290000     5.4623870000
   29      H       0.0039560000    -1.9649720000     5.1739140000
   30      H       1.7643900000    -1.9629320000     4.8633600000
   31      C       0.0000000000     0.0000000000     0.0000000000
   32      S       0.2710910000     0.7454050000     1.5805300000
   33      C       0.8311980000     2.2843630000     0.9049110000
   34      C       0.3411750000     0.9378610000    -0.9854000000
   35      C       0.7926310000     2.1785160000    -0.4935280000
   36      H       0.2606010000     0.7164170000    -2.0599340000
   37      H       1.0938600000     3.0063470000    -1.1525930000
   38      H       1.1323300000     3.1119610000     1.5560250000
   39      H      -0.8571280000    -7.3615890000     0.3033280000
   40      H       0.9125870000    -7.3611920000    -0.0079330000
   41      H      -1.0636840000    -1.4788310000     0.1870170000
 ----------------------------------------------------------------

   11   -1571.6701396401      6.07e-07  Convergence criterion met
 Total energy in the final basis set =    -1571.6701396401
        RIMP2         total energy =     -1576.3446402631 a.u.

                    Orbital Energies (a.u.)
 --------------------------------------------------------------

 Alpha MOs
 -- Occupied --
-91.9684 -20.5580 -20.5475 -20.5421 -20.5413 -15.6325 -15.6221 -11.4035
-11.3882 -11.3842 -11.3799 -11.3128 -11.3100 -11.3097 -11.3062 -11.2997
-11.2899 -11.2873 -11.2706 -11.2701 -11.2663 -11.2659 -11.2599 -11.2552
-11.2543 -11.2459 -11.2338  -8.9687  -6.6492  -6.6476  -6.6466  -1.4368
 -1.4129  -1.4047  -1.3920  -1.2698  -1.2564  -1.2315  -1.1849  -1.1448
 -1.1161  -1.0861  -1.0496  -0.9949  -0.9897  -0.9747  -0.9570  -0.9471
 -0.8998  -0.8912  -0.8804  -0.8635  -0.7916  -0.7832  -0.7768  -0.7584
 -0.7317  -0.7282  -0.7015  -0.6907  -0.6886  -0.6757  -0.6691  -0.6595
 -0.6524  -0.6451  -0.6383  -0.6337  -0.6331  -0.6323  -0.6240  -0.6064
 -0.5904  -0.5717  -0.5676  -0.5640  -0.5563  -0.5541  -0.5536  -0.5500
 -0.5485  -0.5458  -0.5218  -0.5143  -0.5120  -0.4892  -0.4762  -0.4643
 -0.4561  -0.4446  -0.4385  -0.4208  -0.4084  -0.3843  -0.3557  -0.3259
 -0.3237  -0.2754

          Ground-State Mulliken Net Atomic Charges

     Atom                 Charge (a.u.)
  ----------------------------------------
      1 C                    -0.084207
      2 C                    -0.027819
      3 C                    -0.109338
      4 C                    -0.122622
      5 H                     0.199800
      6 C                     0.025612
      7 C                     0.123653
      8 C                    -0.103226
      9 C                    -0.211616
     10 C                    -0.129717
     11 C                     0.200938
     12 H                     0.195773
     13 C                     0.342430
     14 C                     0.348411
     15 N                    -0.090109
     16 C                     0.358828
     17 C                     0.398400
     18 N                    -0.088037
     19 O                    -0.494471
     20 O                    -0.507740
     21 O                    -0.498442
     22 O                    -0.430309
     23 C                    -0.204828
     24 H                     0.139673
     25 H                     0.109480
     26 H                     0.109217
     27 C                    -0.199615
     28 H                     0.135424
     29 H                     0.113124
     30 H                     0.113665
     31 C                    -0.048428
     32 S                     0.069775
     33 C                    -0.252606
     34 C                    -0.184531
     35 C                    -0.246209
     36 H                     0.178860
     37 H                     0.178804
     38 H                     0.200204
     39 H                     0.138530
     40 H                     0.138803
     41 H                     0.214467
  ----------------------------------------
  Sum of atomic charges =     0.000000

                    Cartesian Multipole Moments
 -----------------------------------------------------------------
    Charge (ESU x 10^10)
                 0.0000
    Dipole Moment (Debye)
         X      -0.0820      Y       0.0578      Z       1.7200
       Tot       1.7230
    Quadrupole Moments (Debye-Ang)
        XX    -162.5582     XY       2.0431     YY    -179.3636
        XZ      -4.4849     YZ     -10.3555     ZZ    -184.6129

 Total job time:  301.37s(wall), 9217.84s(cpu)
        *  Thank you very much for using Q-Chem.  Have a nice day.  *
