 Q-Chem 5.4, Q-Chem, Inc., Pleasanton, CA (2021)
 Q-Chem 5.4.0 for Intel X86 EM64T Linux

User input:
--------------------------------------------------------------
$molecule
0 1
C	0.253280	-6.741404	0.043160
C	1.539213	-6.155638	0.269777
C	-0.814295	-5.791452	-0.145543
C	1.813519	-4.803786	0.318377
H	2.403941	-6.821518	0.422058
C	-0.527140	-4.378638	-0.094194
C	0.783072	-3.838032	0.137191
C	-1.556403	-3.413062	-0.275104
C	1.067932	-2.426473	0.188116
C	-1.285420	-2.059348	-0.226701
C	0.000000	-1.478216	0.000000
H	-2.151147	-1.394783	-0.378931
C	-2.234582	-6.187987	-0.397845
C	-2.965273	-3.798164	-0.523637
N	-3.204744	-5.170003	-0.567586
C	3.226257	-4.424987	0.567421
C	2.489446	-2.036627	0.439541
N	3.459801	-3.049156	0.609650
O	-2.619468	-7.353131	-0.468608
O	-3.874668	-2.986854	-0.683034
O	4.124806	-5.248946	0.725131
O	2.895819	-0.878829	0.512648
C	-4.595691	-5.563799	-0.813908
H	-4.640022	-6.664085	-0.822891
H	-4.934830	-5.147101	-1.781600
H	-5.246157	-5.148785	-0.020360
C	4.829716	-2.587487	0.851649
H	5.462742	-3.483329	0.962191
H	4.863242	-1.964972	1.765865
H	5.173521	-1.962932	0.005383
C	0.000000	0.000000	0.000000
S	0.509686	0.607733	1.580530
C	1.562368	1.862312	0.904911
C	0.641367	0.764613	-0.985400
C	1.489926	1.776040	-0.493528
H	0.489914	0.584081	-2.059934
H	2.056124	2.450920	-1.152593
H	2.128395	2.537007	1.556025
H	-0.008120	-7.361589	0.909181
H	0.304668	-7.361192	-0.860264
H	-0.188062	-1.478831	1.063500
$end

$rem
JOBTYPE		SP
EXCHANGE	HF
CORRELATION	pRIMP2
BASIS		cc-pvtz
METHOD		rimp2
AUX_BASIS	rimp2-cc-pvtz
SOLVENT_METHOD	PCM
PURECART	11111
SYMMETRY	false
MEM_TOTAL	110000
SCF_CONVERGENCE = 6
THRESH=10
GUI = 2
$end

$solvent
dielectric 4.90
$end
--------------------------------------------------------------

             Standard Nuclear Orientation (Angstroms)
    I     Atom           X                Y                Z
 ----------------------------------------------------------------
    1      C       0.2532800000    -6.7414040000     0.0431600000
    2      C       1.5392130000    -6.1556380000     0.2697770000
    3      C      -0.8142950000    -5.7914520000    -0.1455430000
    4      C       1.8135190000    -4.8037860000     0.3183770000
    5      H       2.4039410000    -6.8215180000     0.4220580000
    6      C      -0.5271400000    -4.3786380000    -0.0941940000
    7      C       0.7830720000    -3.8380320000     0.1371910000
    8      C      -1.5564030000    -3.4130620000    -0.2751040000
    9      C       1.0679320000    -2.4264730000     0.1881160000
   10      C      -1.2854200000    -2.0593480000    -0.2267010000
   11      C       0.0000000000    -1.4782160000     0.0000000000
   12      H      -2.1511470000    -1.3947830000    -0.3789310000
   13      C      -2.2345820000    -6.1879870000    -0.3978450000
   14      C      -2.9652730000    -3.7981640000    -0.5236370000
   15      N      -3.2047440000    -5.1700030000    -0.5675860000
   16      C       3.2262570000    -4.4249870000     0.5674210000
   17      C       2.4894460000    -2.0366270000     0.4395410000
   18      N       3.4598010000    -3.0491560000     0.6096500000
   19      O      -2.6194680000    -7.3531310000    -0.4686080000
   20      O      -3.8746680000    -2.9868540000    -0.6830340000
   21      O       4.1248060000    -5.2489460000     0.7251310000
   22      O       2.8958190000    -0.8788290000     0.5126480000
   23      C      -4.5956910000    -5.5637990000    -0.8139080000
   24      H      -4.6400220000    -6.6640850000    -0.8228910000
   25      H      -4.9348300000    -5.1471010000    -1.7816000000
   26      H      -5.2461570000    -5.1487850000    -0.0203600000
   27      C       4.8297160000    -2.5874870000     0.8516490000
   28      H       5.4627420000    -3.4833290000     0.9621910000
   29      H       4.8632420000    -1.9649720000     1.7658650000
   30      H       5.1735210000    -1.9629320000     0.0053830000
   31      C       0.0000000000     0.0000000000     0.0000000000
   32      S       0.5096860000     0.6077330000     1.5805300000
   33      C       1.5623680000     1.8623120000     0.9049110000
   34      C       0.6413670000     0.7646130000    -0.9854000000
   35      C       1.4899260000     1.7760400000    -0.4935280000
   36      H       0.4899140000     0.5840810000    -2.0599340000
   37      H       2.0561240000     2.4509200000    -1.1525930000
   38      H       2.1283950000     2.5370070000     1.5560250000
   39      H      -0.0081200000    -7.3615890000     0.9091810000
   40      H       0.3046680000    -7.3611920000    -0.8602640000
   41      H      -0.1880620000    -1.4788310000     1.0635000000
 ----------------------------------------------------------------

   11   -1571.7101190277      5.88e-07  Convergence criterion met
 Total energy in the final basis set =    -1571.7101190277
        RIMP2         total energy =     -1576.3748612457 a.u.

                    Orbital Energies (a.u.)
 --------------------------------------------------------------

 Alpha MOs
 -- Occupied --
-91.9858 -20.5476 -20.5433 -20.5395 -20.5382 -15.6251 -15.6193 -11.3897
-11.3838 -11.3814 -11.3765 -11.3059 -11.3034 -11.3027 -11.3021 -11.2947
-11.2915 -11.2828 -11.2740 -11.2666 -11.2656 -11.2624 -11.2616 -11.2595
-11.2583 -11.2510 -11.2478  -8.9861  -6.6669  -6.6663  -6.6658  -1.4172
 -1.4102  -1.3954  -1.3893  -1.2602  -1.2534  -1.2275  -1.1861  -1.1505
 -1.1112  -1.0835  -1.0440  -0.9939  -0.9863  -0.9852  -0.9535  -0.9497
 -0.8935  -0.8828  -0.8750  -0.8579  -0.7885  -0.7753  -0.7731  -0.7672
 -0.7358  -0.7163  -0.7029  -0.6896  -0.6740  -0.6675  -0.6660  -0.6556
 -0.6452  -0.6393  -0.6353  -0.6299  -0.6293  -0.6250  -0.6223  -0.6025
 -0.5825  -0.5727  -0.5681  -0.5604  -0.5548  -0.5499  -0.5487  -0.5471
 -0.5463  -0.5422  -0.5175  -0.5093  -0.5018  -0.4782  -0.4702  -0.4665
 -0.4524  -0.4435  -0.4397  -0.4324  -0.4127  -0.4058  -0.3511  -0.3485
 -0.3287  -0.2873

          Ground-State Mulliken Net Atomic Charges

     Atom                 Charge (a.u.)
  ----------------------------------------
      1 C                    -0.083867
      2 C                    -0.033213
      3 C                    -0.117946
      4 C                    -0.118886
      5 H                     0.197660
      6 C                     0.012122
      7 C                     0.113433
      8 C                    -0.076721
      9 C                    -0.163318
     10 C                    -0.165692
     11 C                     0.213672
     12 H                     0.191072
     13 C                     0.341997
     14 C                     0.347264
     15 N                    -0.089437
     16 C                     0.355123
     17 C                     0.359604
     18 N                    -0.087195
     19 O                    -0.497219
     20 O                    -0.509359
     21 O                    -0.503162
     22 O                    -0.465717
     23 C                    -0.205289
     24 H                     0.139114
     25 H                     0.108512
     26 H                     0.108668
     27 C                    -0.197940
     28 H                     0.133237
     29 H                     0.110362
     30 H                     0.110472
     31 C                    -0.073984
     32 S                     0.003612
     33 C                    -0.158045
     34 C                    -0.153923
     35 C                    -0.193277
     36 H                     0.188527
     37 H                     0.188050
     38 H                     0.211871
     39 H                     0.136186
     40 H                     0.136331
     41 H                     0.187302
  ----------------------------------------
  Sum of atomic charges =     0.000000

                    Cartesian Multipole Moments
 -----------------------------------------------------------------
    Charge (ESU x 10^10)
                 0.0000
    Dipole Moment (Debye)
         X       3.0397      Y       3.0256      Z      -0.0646
       Tot       4.2893
    Quadrupole Moments (Debye-Ang)
        XX    -190.3837     XY      -2.6830     YY    -186.4242
        XZ      -4.7909     YZ      -2.1329     ZZ    -157.0236

 Total job time:  306.52s(wall), 9147.73s(cpu)
        *  Thank you very much for using Q-Chem.  Have a nice day.  *
