 Q-Chem 5.4, Q-Chem, Inc., Pleasanton, CA (2021)
 Q-Chem 5.4.0 for Intel X86 EM64T Linux

User input:
--------------------------------------------------------------
$molecule
0 1
C	0.256927	-6.741404	-0.001478
C	1.562675	-6.155638	-0.001603
C	-0.827197	-5.791452	-0.001931
C	1.841253	-4.803786	-0.001374
H	2.440709	-6.821518	-0.001794
C	-0.535488	-4.378638	-0.001227
C	0.794999	-3.838032	-0.000872
C	-1.580529	-3.413062	-0.000658
C	1.084374	-2.426473	-0.000186
C	-1.305258	-2.059348	-0.000046
C	0.000000	-1.478216	0.000000
H	-2.184267	-1.394783	0.000369
C	-2.269719	-6.187987	-0.003770
C	-3.011152	-3.798164	-0.000767
N	-3.254617	-5.170003	-0.002465
C	3.275775	-4.424987	-0.001433
C	2.527951	-2.036627	0.000576
N	3.513104	-3.049156	-0.000400
O	-2.661046	-7.353131	-0.006623
O	-3.934410	-2.986854	0.000172
O	4.188059	-5.248946	-0.002151
O	2.940845	-0.878829	0.002006
C	-4.667206	-5.563799	-0.003509
H	-4.712423	-6.664085	-0.004658
H	-5.169231	-5.147101	-0.897610
H	-5.169992	-5.148785	0.890935
C	4.904229	-2.587487	0.000039
H	5.546833	-3.483329	-0.001022
H	5.095998	-1.964972	0.894545
H	5.095858	-1.962932	-0.893071
C	0.000000	0.000000	0.000000
S	0.509686	0.607733	1.580530
C	1.562368	1.862312	0.904911
C	0.641367	0.764613	-0.985400
C	1.489926	1.776040	-0.493528
H	0.489914	0.584081	-2.059934
H	2.056124	2.450920	-1.152593
H	2.128395	2.537007	1.556025
H	0.149881	-7.361589	0.896779
H	0.150656	-7.361192	-0.900100
H	-0.000531	-1.478831	1.080000
$end

$rem
JOBTYPE		SP
EXCHANGE	HF
CORRELATION	pRIMP2
BASIS		cc-pvtz
METHOD		rimp2
AUX_BASIS	rimp2-cc-pvtz
SOLVENT_METHOD	PCM
PURECART	11111
SYMMETRY	false
MEM_TOTAL	110000
SCF_CONVERGENCE = 6
THRESH=10
GUI = 2
$end

$solvent
dielectric 4.90
$end
--------------------------------------------------------------

             Standard Nuclear Orientation (Angstroms)
    I     Atom           X                Y                Z
 ----------------------------------------------------------------
    1      C       0.2569270000    -6.7414040000    -0.0014780000
    2      C       1.5626750000    -6.1556380000    -0.0016030000
    3      C      -0.8271970000    -5.7914520000    -0.0019310000
    4      C       1.8412530000    -4.8037860000    -0.0013740000
    5      H       2.4407090000    -6.8215180000    -0.0017940000
    6      C      -0.5354880000    -4.3786380000    -0.0012270000
    7      C       0.7949990000    -3.8380320000    -0.0008720000
    8      C      -1.5805290000    -3.4130620000    -0.0006580000
    9      C       1.0843740000    -2.4264730000    -0.0001860000
   10      C      -1.3052580000    -2.0593480000    -0.0000460000
   11      C       0.0000000000    -1.4782160000     0.0000000000
   12      H      -2.1842670000    -1.3947830000     0.0003690000
   13      C      -2.2697190000    -6.1879870000    -0.0037700000
   14      C      -3.0111520000    -3.7981640000    -0.0007670000
   15      N      -3.2546170000    -5.1700030000    -0.0024650000
   16      C       3.2757750000    -4.4249870000    -0.0014330000
   17      C       2.5279510000    -2.0366270000     0.0005760000
   18      N       3.5131040000    -3.0491560000    -0.0004000000
   19      O      -2.6610460000    -7.3531310000    -0.0066230000
   20      O      -3.9344100000    -2.9868540000     0.0001720000
   21      O       4.1880590000    -5.2489460000    -0.0021510000
   22      O       2.9408450000    -0.8788290000     0.0020060000
   23      C      -4.6672060000    -5.5637990000    -0.0035090000
   24      H      -4.7124230000    -6.6640850000    -0.0046580000
   25      H      -5.1692310000    -5.1471010000    -0.8976100000
   26      H      -5.1699920000    -5.1487850000     0.8909350000
   27      C       4.9042290000    -2.5874870000     0.0000390000
   28      H       5.5468330000    -3.4833290000    -0.0010220000
   29      H       5.0959980000    -1.9649720000     0.8945450000
   30      H       5.0958580000    -1.9629320000    -0.8930710000
   31      C       0.0000000000     0.0000000000     0.0000000000
   32      S       0.5096860000     0.6077330000     1.5805300000
   33      C       1.5623680000     1.8623120000     0.9049110000
   34      C       0.6413670000     0.7646130000    -0.9854000000
   35      C       1.4899260000     1.7760400000    -0.4935280000
   36      H       0.4899140000     0.5840810000    -2.0599340000
   37      H       2.0561240000     2.4509200000    -1.1525930000
   38      H       2.1283950000     2.5370070000     1.5560250000
   39      H       0.1498810000    -7.3615890000     0.8967790000
   40      H       0.1506560000    -7.3611920000    -0.9001000000
   41      H      -0.0005310000    -1.4788310000     1.0800000000
 ----------------------------------------------------------------

   11   -1571.7107886973      5.85e-07  Convergence criterion met
 Total energy in the final basis set =    -1571.7107886973
        RIMP2         total energy =     -1576.3745961182 a.u.

                    Orbital Energies (a.u.)
 --------------------------------------------------------------

 Alpha MOs
 -- Occupied --
-91.9876 -20.5481 -20.5434 -20.5393 -20.5380 -15.6253 -15.6192 -11.3901
-11.3839 -11.3812 -11.3763 -11.3059 -11.3031 -11.3025 -11.3020 -11.2947
-11.2916 -11.2822 -11.2744 -11.2666 -11.2653 -11.2625 -11.2620 -11.2592
-11.2582 -11.2509 -11.2480  -8.9880  -6.6688  -6.6681  -6.6676  -1.4174
 -1.4100  -1.3955  -1.3891  -1.2603  -1.2533  -1.2276  -1.1865  -1.1506
 -1.1110  -1.0835  -1.0438  -0.9943  -0.9863  -0.9860  -0.9534  -0.9496
 -0.8935  -0.8825  -0.8749  -0.8577  -0.7889  -0.7754  -0.7729  -0.7672
 -0.7369  -0.7159  -0.7030  -0.6896  -0.6739  -0.6677  -0.6659  -0.6556
 -0.6452  -0.6396  -0.6354  -0.6298  -0.6292  -0.6249  -0.6219  -0.6026
 -0.5823  -0.5731  -0.5680  -0.5604  -0.5546  -0.5499  -0.5486  -0.5466
 -0.5461  -0.5423  -0.5188  -0.5097  -0.5020  -0.4776  -0.4707  -0.4673
 -0.4526  -0.4448  -0.4401  -0.4323  -0.4125  -0.4057  -0.3525  -0.3488
 -0.3291  -0.2867

          Ground-State Mulliken Net Atomic Charges

     Atom                 Charge (a.u.)
  ----------------------------------------
      1 C                    -0.084111
      2 C                    -0.032911
      3 C                    -0.118388
      4 C                    -0.118809
      5 H                     0.197705
      6 C                     0.011924
      7 C                     0.113200
      8 C                    -0.073358
      9 C                    -0.154314
     10 C                    -0.166625
     11 C                     0.209298
     12 H                     0.191104
     13 C                     0.341869
     14 C                     0.347563
     15 N                    -0.089319
     16 C                     0.355511
     17 C                     0.358431
     18 N                    -0.087111
     19 O                    -0.497643
     20 O                    -0.509563
     21 O                    -0.502937
     22 O                    -0.466656
     23 C                    -0.205326
     24 H                     0.139046
     25 H                     0.108544
     26 H                     0.108619
     27 C                    -0.198082
     28 H                     0.133452
     29 H                     0.110557
     30 H                     0.110240
     31 C                    -0.071835
     32 S                     0.000231
     33 C                    -0.171220
     34 C                    -0.161308
     35 C                    -0.175669
     36 H                     0.188004
     37 H                     0.187179
     38 H                     0.212620
     39 H                     0.136169
     40 H                     0.136307
     41 H                     0.187613
  ----------------------------------------
  Sum of atomic charges =     0.000000

                    Cartesian Multipole Moments
 -----------------------------------------------------------------
    Charge (ESU x 10^10)
                 0.0000
    Dipole Moment (Debye)
         X       3.1560      Y       3.0842      Z      -0.3527
       Tot       4.4269
    Quadrupole Moments (Debye-Ang)
        XX    -191.5147     XY      -3.2059     YY    -186.4679
        XZ       0.7719     YZ      -0.5382     ZZ    -156.0070

 Total job time:  316.92s(wall), 9247.02s(cpu)
        *  Thank you very much for using Q-Chem.  Have a nice day.  *
