 Q-Chem 5.4, Q-Chem, Inc., Pleasanton, CA (2021)
 Q-Chem 5.4.0 for Intel X86 EM64T Linux

User input:
--------------------------------------------------------------
$molecule
0 1
C	0.241938	-6.741404	0.086486
C	1.468983	-6.155638	0.532960
C	-0.776651	-5.791452	-0.284733
C	1.730681	-4.803786	0.628455
H	2.294130	-6.821518	0.833086
C	-0.502775	-4.378638	-0.184300
C	0.747353	-3.838032	0.271086
C	-1.484986	-3.413062	-0.541191
C	1.019042	-2.426473	0.370703
C	-1.226525	-2.059348	-0.446468
C	-0.000000	-1.478216	-0.000000
H	-2.052666	-1.394783	-0.746717
C	-2.131549	-6.187987	-0.779832
C	-2.829295	-3.798164	-1.030596
N	-3.057496	-5.170003	-1.115461
C	3.078712	-4.424987	1.119034
C	2.375300	-2.036627	0.865151
N	3.301374	-3.049156	1.201176
O	-2.498300	-7.353131	-0.916355
O	-3.697195	-2.986854	-1.345486
O	3.936224	-5.248946	1.430379
O	2.762805	-0.878829	1.007714
C	-4.384539	-5.563799	-1.599576
H	-4.426636	-6.664085	-1.616121
H	-4.550487	-5.147101	-2.611458
H	-5.162921	-5.148785	-0.931037
C	4.608454	-2.587487	1.677382
H	5.212668	-3.483329	1.896168
H	4.482719	-1.964972	2.583531
H	5.093988	-1.962932	0.903674
C	0.000000	0.000000	0.000000
S	0.271091	0.745405	1.580530
C	0.831198	2.284363	0.904911
C	0.341175	0.937861	-0.985400
C	0.792631	2.178516	-0.493528
H	0.260601	0.716417	-2.059934
H	1.093860	3.006347	-1.152593
H	1.132330	3.111961	1.556025
H	-0.165874	-7.361589	0.893959
H	0.449423	-7.361192	-0.794290
H	-0.369880	-1.478831	1.014686
$end

$rem
JOBTYPE		SP
EXCHANGE	HF
CORRELATION	pRIMP2
BASIS		cc-pvtz
METHOD		rimp2
AUX_BASIS	rimp2-cc-pvtz
SOLVENT_METHOD	PCM
PURECART	11111
SYMMETRY	false
MEM_TOTAL	110000
SCF_CONVERGENCE = 6
THRESH=10
GUI = 2
$end

$solvent
dielectric 4.90
$end
--------------------------------------------------------------

             Standard Nuclear Orientation (Angstroms)
    I     Atom           X                Y                Z
 ----------------------------------------------------------------
    1      C       0.2419380000    -6.7414040000     0.0864860000
    2      C       1.4689830000    -6.1556380000     0.5329600000
    3      C      -0.7766510000    -5.7914520000    -0.2847330000
    4      C       1.7306810000    -4.8037860000     0.6284550000
    5      H       2.2941300000    -6.8215180000     0.8330860000
    6      C      -0.5027750000    -4.3786380000    -0.1843000000
    7      C       0.7473530000    -3.8380320000     0.2710860000
    8      C      -1.4849860000    -3.4130620000    -0.5411910000
    9      C       1.0190420000    -2.4264730000     0.3707030000
   10      C      -1.2265250000    -2.0593480000    -0.4464680000
   11      C       0.0000000000    -1.4782160000     0.0000000000
   12      H      -2.0526660000    -1.3947830000    -0.7467170000
   13      C      -2.1315490000    -6.1879870000    -0.7798320000
   14      C      -2.8292950000    -3.7981640000    -1.0305960000
   15      N      -3.0574960000    -5.1700030000    -1.1154610000
   16      C       3.0787120000    -4.4249870000     1.1190340000
   17      C       2.3753000000    -2.0366270000     0.8651510000
   18      N       3.3013740000    -3.0491560000     1.2011760000
   19      O      -2.4983000000    -7.3531310000    -0.9163550000
   20      O      -3.6971950000    -2.9868540000    -1.3454860000
   21      O       3.9362240000    -5.2489460000     1.4303790000
   22      O       2.7628050000    -0.8788290000     1.0077140000
   23      C      -4.3845390000    -5.5637990000    -1.5995760000
   24      H      -4.4266360000    -6.6640850000    -1.6161210000
   25      H      -4.5504870000    -5.1471010000    -2.6114580000
   26      H      -5.1629210000    -5.1487850000    -0.9310370000
   27      C       4.6084540000    -2.5874870000     1.6773820000
   28      H       5.2126680000    -3.4833290000     1.8961680000
   29      H       4.4827190000    -1.9649720000     2.5835310000
   30      H       5.0939880000    -1.9629320000     0.9036740000
   31      C       0.0000000000     0.0000000000     0.0000000000
   32      S       0.2710910000     0.7454050000     1.5805300000
   33      C       0.8311980000     2.2843630000     0.9049110000
   34      C       0.3411750000     0.9378610000    -0.9854000000
   35      C       0.7926310000     2.1785160000    -0.4935280000
   36      H       0.2606010000     0.7164170000    -2.0599340000
   37      H       1.0938600000     3.0063470000    -1.1525930000
   38      H       1.1323300000     3.1119610000     1.5560250000
   39      H      -0.1658740000    -7.3615890000     0.8939590000
   40      H       0.4494230000    -7.3611920000    -0.7942900000
   41      H      -0.3698800000    -1.4788310000     1.0146860000
 ----------------------------------------------------------------

   11   -1571.7348859155      5.64e-07  Convergence criterion met
 Total energy in the final basis set =    -1571.7348859155
        RIMP2         total energy =     -1576.3931217075 a.u.

                    Orbital Energies (a.u.)
 --------------------------------------------------------------

 Alpha MOs
 -- Occupied --
-91.9877 -20.5496 -20.5439 -20.5413 -20.5400 -15.6260 -15.6208 -11.3916
-11.3845 -11.3832 -11.3785 -11.3079 -11.3071 -11.3044 -11.3042 -11.2959
-11.2882 -11.2874 -11.2848 -11.2685 -11.2677 -11.2632 -11.2624 -11.2592
-11.2553 -11.2523 -11.2493  -8.9875  -6.6683  -6.6678  -6.6673  -1.4183
 -1.4118  -1.3963  -1.3910  -1.2612  -1.2550  -1.2289  -1.1857  -1.1516
 -1.1133  -1.0858  -1.0459  -0.9947  -0.9874  -0.9834  -0.9545  -0.9508
 -0.8951  -0.8861  -0.8763  -0.8596  -0.7915  -0.7752  -0.7740  -0.7675
 -0.7357  -0.7170  -0.7036  -0.6907  -0.6767  -0.6694  -0.6671  -0.6567
 -0.6464  -0.6395  -0.6378  -0.6317  -0.6305  -0.6263  -0.6228  -0.6043
 -0.5840  -0.5738  -0.5673  -0.5610  -0.5567  -0.5508  -0.5500  -0.5476
 -0.5466  -0.5431  -0.5181  -0.5135  -0.5079  -0.4808  -0.4728  -0.4661
 -0.4550  -0.4492  -0.4422  -0.4341  -0.4128  -0.4071  -0.3522  -0.3486
 -0.3283  -0.2893

          Ground-State Mulliken Net Atomic Charges

     Atom                 Charge (a.u.)
  ----------------------------------------
      1 C                    -0.084069
      2 C                    -0.031160
      3 C                    -0.112317
      4 C                    -0.120743
      5 H                     0.198449
      6 C                     0.008228
      7 C                     0.119526
      8 C                    -0.081563
      9 C                    -0.174583
     10 C                    -0.148694
     11 C                     0.240583
     12 H                     0.191050
     13 C                     0.343093
     14 C                     0.350445
     15 N                    -0.090098
     16 C                     0.356084
     17 C                     0.363464
     18 N                    -0.090025
     19 O                    -0.494759
     20 O                    -0.507611
     21 O                    -0.502089
     22 O                    -0.468223
     23 C                    -0.204771
     24 H                     0.139349
     25 H                     0.108932
     26 H                     0.109083
     27 C                    -0.197507
     28 H                     0.133023
     29 H                     0.111007
     30 H                     0.111469
     31 C                    -0.064948
     32 S                     0.020051
     33 C                    -0.203689
     34 C                    -0.183238
     35 C                    -0.198863
     36 H                     0.189168
     37 H                     0.190862
     38 H                     0.211824
     39 H                     0.137309
     40 H                     0.137380
     41 H                     0.188570
  ----------------------------------------
  Sum of atomic charges =     0.000000

                    Cartesian Multipole Moments
 -----------------------------------------------------------------
    Charge (ESU x 10^10)
                 0.0000
    Dipole Moment (Debye)
         X       1.5618      Y       2.4727      Z       0.1583
       Tot       2.9289
    Quadrupole Moments (Debye-Ang)
        XX    -190.9581     XY      -3.9549     YY    -179.7690
        XZ     -10.0678     YZ      -3.4328     ZZ    -159.9477

 Total job time:  294.62s(wall), 8986.84s(cpu)
        *  Thank you very much for using Q-Chem.  Have a nice day.  *
