 Q-Chem 5.4, Q-Chem, Inc., Pleasanton, CA (2021)
 Q-Chem 5.4.0 for Intel X86 EM64T Linux

User input:
--------------------------------------------------------------
$molecule
0 1
C	0.195868	-6.741404	-0.166281
C	1.196048	-6.155638	-1.005696
C	-0.634911	-5.791452	0.530233
C	1.409599	-4.803786	-1.184587
H	1.868538	-6.821518	-1.570232
C	-0.410996	-4.378638	0.343266
C	0.608444	-3.838032	-0.511683
C	-1.211179	-3.413062	1.015440
C	0.830559	-2.426473	-0.697165
C	-0.999915	-2.059348	0.838968
C	-0.000000	-1.478216	-0.000000
H	-1.673009	-1.394783	1.404302
C	-1.741129	-6.187987	1.456059
C	-2.307170	-3.798164	1.934944
N	-2.494766	-5.170003	2.090139
C	2.508468	-4.424987	-2.106725
C	1.936893	-2.036627	-1.624494
N	2.690936	-3.049156	-2.258486
O	-2.042736	-7.353131	1.705414
O	-3.013823	-2.986854	2.529122
O	3.206857	-5.248946	-2.693680
O	2.254108	-0.878829	-1.888802
C	-3.577543	-5.563799	2.997334
H	-3.612920	-6.664085	3.025519
H	-4.536833	-5.147101	2.635109
H	-3.387762	-5.148785	4.005702
C	3.756883	-2.587487	-3.152347
H	4.248464	-3.483329	-3.566218
H	4.478763	-1.964972	-2.590383
H	3.329599	-1.962932	-3.959687
C	0.000000	0.000000	0.000000
S	0.686805	0.396760	1.580530
C	2.105095	1.215640	0.904911
C	0.864201	0.499140	-0.985400
C	2.007514	1.159347	-0.493528
H	0.660136	0.381296	-2.059934
H	2.770388	1.599875	-1.152593
H	2.867745	1.656053	1.556025
H	0.691254	-7.361589	0.590631
H	-0.463164	-7.361192	-0.786357
H	0.693804	-1.478831	0.827669
$end

$rem
JOBTYPE		SP
EXCHANGE	HF
CORRELATION	pRIMP2
BASIS		cc-pvtz
METHOD		rimp2
AUX_BASIS	rimp2-cc-pvtz
SOLVENT_METHOD	PCM
PURECART	11111
SYMMETRY	false
MEM_TOTAL	110000
SCF_CONVERGENCE = 6
THRESH=10
GUI = 2
$end

$solvent
dielectric 4.90
$end
--------------------------------------------------------------

             Standard Nuclear Orientation (Angstroms)
    I     Atom           X                Y                Z
 ----------------------------------------------------------------
    1      C       0.1958680000    -6.7414040000    -0.1662810000
    2      C       1.1960480000    -6.1556380000    -1.0056960000
    3      C      -0.6349110000    -5.7914520000     0.5302330000
    4      C       1.4095990000    -4.8037860000    -1.1845870000
    5      H       1.8685380000    -6.8215180000    -1.5702320000
    6      C      -0.4109960000    -4.3786380000     0.3432660000
    7      C       0.6084440000    -3.8380320000    -0.5116830000
    8      C      -1.2111790000    -3.4130620000     1.0154400000
    9      C       0.8305590000    -2.4264730000    -0.6971650000
   10      C      -0.9999150000    -2.0593480000     0.8389680000
   11      C       0.0000000000    -1.4782160000     0.0000000000
   12      H      -1.6730090000    -1.3947830000     1.4043020000
   13      C      -1.7411290000    -6.1879870000     1.4560590000
   14      C      -2.3071700000    -3.7981640000     1.9349440000
   15      N      -2.4947660000    -5.1700030000     2.0901390000
   16      C       2.5084680000    -4.4249870000    -2.1067250000
   17      C       1.9368930000    -2.0366270000    -1.6244940000
   18      N       2.6909360000    -3.0491560000    -2.2584860000
   19      O      -2.0427360000    -7.3531310000     1.7054140000
   20      O      -3.0138230000    -2.9868540000     2.5291220000
   21      O       3.2068570000    -5.2489460000    -2.6936800000
   22      O       2.2541080000    -0.8788290000    -1.8888020000
   23      C      -3.5775430000    -5.5637990000     2.9973340000
   24      H      -3.6129200000    -6.6640850000     3.0255190000
   25      H      -4.5368330000    -5.1471010000     2.6351090000
   26      H      -3.3877620000    -5.1487850000     4.0057020000
   27      C       3.7568830000    -2.5874870000    -3.1523470000
   28      H       4.2484640000    -3.4833290000    -3.5662180000
   29      H       4.4787630000    -1.9649720000    -2.5903830000
   30      H       3.3295990000    -1.9629320000    -3.9596870000
   31      C       0.0000000000     0.0000000000     0.0000000000
   32      S       0.6868050000     0.3967600000     1.5805300000
   33      C       2.1050950000     1.2156400000     0.9049110000
   34      C       0.8642010000     0.4991400000    -0.9854000000
   35      C       2.0075140000     1.1593470000    -0.4935280000
   36      H       0.6601360000     0.3812960000    -2.0599340000
   37      H       2.7703880000     1.5998750000    -1.1525930000
   38      H       2.8677450000     1.6560530000     1.5560250000
   39      H       0.6912540000    -7.3615890000     0.5906310000
   40      H      -0.4631640000    -7.3611920000    -0.7863570000
   41      H       0.6938040000    -1.4788310000     0.8276690000
 ----------------------------------------------------------------

   11   -1571.6392618151      6.78e-07  Convergence criterion met
 Total energy in the final basis set =    -1571.6392618151
        RIMP2         total energy =     -1576.3139503695 a.u.

                    Orbital Energies (a.u.)
 --------------------------------------------------------------

 Alpha MOs
 -- Occupied --
-91.9745 -20.5573 -20.5456 -20.5376 -20.5368 -15.6308 -15.6182 -11.3997
-11.3863 -11.3796 -11.3751 -11.3056 -11.3039 -11.3018 -11.2994 -11.2986
-11.2957 -11.2800 -11.2738 -11.2672 -11.2658 -11.2630 -11.2588 -11.2575
-11.2516 -11.2505 -11.2485  -8.9770  -6.6578  -6.6569  -6.6565  -1.4310
 -1.4087  -1.4022  -1.3878  -1.2669  -1.2525  -1.2311  -1.1921  -1.1503
 -1.1108  -1.0825  -1.0443  -0.9965  -0.9936  -0.9877  -0.9544  -0.9483
 -0.8958  -0.8811  -0.8761  -0.8578  -0.7908  -0.7781  -0.7737  -0.7687
 -0.7388  -0.7276  -0.7027  -0.6859  -0.6808  -0.6724  -0.6656  -0.6564
 -0.6464  -0.6455  -0.6359  -0.6313  -0.6290  -0.6272  -0.6216  -0.6017
 -0.5868  -0.5817  -0.5673  -0.5620  -0.5555  -0.5547  -0.5500  -0.5465
 -0.5452  -0.5424  -0.5164  -0.5108  -0.5014  -0.4869  -0.4689  -0.4633
 -0.4525  -0.4416  -0.4398  -0.4327  -0.4167  -0.4047  -0.3504  -0.3380
 -0.3313  -0.2744

          Ground-State Mulliken Net Atomic Charges

     Atom                 Charge (a.u.)
  ----------------------------------------
      1 C                    -0.086539
      2 C                    -0.030197
      3 C                    -0.122371
      4 C                    -0.120473
      5 H                     0.197927
      6 C                     0.012633
      7 C                     0.123235
      8 C                    -0.091309
      9 C                    -0.182302
     10 C                    -0.137567
     11 C                     0.166451
     12 H                     0.190267
     13 C                     0.341452
     14 C                     0.347129
     15 N                    -0.088728
     16 C                     0.356981
     17 C                     0.398065
     18 N                    -0.084167
     19 O                    -0.500310
     20 O                    -0.510509
     21 O                    -0.500863
     22 O                    -0.473819
     23 C                    -0.205787
     24 H                     0.138803
     25 H                     0.108485
     26 H                     0.108470
     27 C                    -0.199346
     28 H                     0.135693
     29 H                     0.111866
     30 H                     0.111577
     31 C                    -0.197436
     32 S                    -0.031631
     33 C                    -0.151130
     34 C                     0.031538
     35 C                    -0.223587
     36 H                     0.195820
     37 H                     0.184222
     38 H                     0.213849
     39 H                     0.135774
     40 H                     0.136000
     41 H                     0.191836
  ----------------------------------------
  Sum of atomic charges =     0.000000

                    Cartesian Multipole Moments
 -----------------------------------------------------------------
    Charge (ESU x 10^10)
                 0.0000
    Dipole Moment (Debye)
         X       5.0898      Y       2.5195      Z      -2.5741
       Tot       6.2353
    Quadrupole Moments (Debye-Ang)
        XX    -171.7364     XY      -3.6404     YY    -191.4180
        XZ      16.0221     YZ       6.2780     ZZ    -169.5506

 Total job time:  310.49s(wall), 8881.33s(cpu)
        *  Thank you very much for using Q-Chem.  Have a nice day.  *
