 Q-Chem 5.4, Q-Chem, Inc., Pleasanton, CA (2021)
 Q-Chem 5.4.0 for Intel X86 EM64T Linux

User input:
--------------------------------------------------------------
$molecule
0 1
C	-0.197767	-6.741404	-0.164018
C	-1.198109	-6.155638	-1.003240
C	0.632428	-5.791452	0.533192
C	-1.411364	-4.803786	-1.182482
H	-1.870845	-6.821518	-1.567483
C	0.409419	-4.378638	0.345145
C	-0.609565	-3.838032	-0.510347
C	1.210332	-3.413062	1.016449
C	-0.830799	-2.426473	-0.696879
C	0.999856	-2.059348	0.839039
C	-0.000000	-1.478216	-0.000000
H	1.673483	-1.394783	1.403737
C	1.736282	-6.187987	1.461835
C	2.306183	-3.798164	1.936119
N	2.491597	-5.170003	2.093916
C	-2.510310	-4.424987	-2.104529
C	-1.936153	-2.036627	-1.625377
N	-2.691451	-3.049156	-2.257873
O	2.034222	-7.353131	1.715561
O	3.014044	-2.986854	2.528858
O	-3.209622	-5.248946	-2.690385
O	-2.251529	-0.878829	-1.891876
C	3.573032	-5.563799	3.002711
H	3.606932	-6.664085	3.032655
H	3.382888	-5.147101	4.010326
H	4.533125	-5.148785	2.640711
C	-3.756832	-2.587487	-3.152408
H	-4.249778	-3.483329	-3.564653
H	-3.328759	-1.964972	-3.960905
H	-4.477709	-1.962932	-2.591422
C	0.000000	0.000000	0.000000
S	0.335026	0.718942	1.580530
C	1.027130	2.203226	0.904911
C	0.421617	0.904557	-0.985400
C	0.979485	2.101144	-0.493528
H	0.322049	0.690978	-2.059934
H	1.351718	2.899571	-1.152593
H	1.399246	3.001430	1.556025
H	0.461623	-7.361589	-0.783314
H	-0.693983	-7.361192	0.592677
H	0.694617	-1.478831	-0.826987
$end

$rem
JOBTYPE		SP
EXCHANGE	HF
CORRELATION	pRIMP2
BASIS		cc-pvtz
METHOD		rimp2
AUX_BASIS	rimp2-cc-pvtz
SOLVENT_METHOD	PCM
PURECART	11111
SYMMETRY	false
MEM_TOTAL	110000
SCF_CONVERGENCE = 6
THRESH=10
GUI = 2
$end

$solvent
dielectric 4.90
$end
--------------------------------------------------------------

             Standard Nuclear Orientation (Angstroms)
    I     Atom           X                Y                Z
 ----------------------------------------------------------------
    1      C      -0.1977670000    -6.7414040000    -0.1640180000
    2      C      -1.1981090000    -6.1556380000    -1.0032400000
    3      C       0.6324280000    -5.7914520000     0.5331920000
    4      C      -1.4113640000    -4.8037860000    -1.1824820000
    5      H      -1.8708450000    -6.8215180000    -1.5674830000
    6      C       0.4094190000    -4.3786380000     0.3451450000
    7      C      -0.6095650000    -3.8380320000    -0.5103470000
    8      C       1.2103320000    -3.4130620000     1.0164490000
    9      C      -0.8307990000    -2.4264730000    -0.6968790000
   10      C       0.9998560000    -2.0593480000     0.8390390000
   11      C       0.0000000000    -1.4782160000     0.0000000000
   12      H       1.6734830000    -1.3947830000     1.4037370000
   13      C       1.7362820000    -6.1879870000     1.4618350000
   14      C       2.3061830000    -3.7981640000     1.9361190000
   15      N       2.4915970000    -5.1700030000     2.0939160000
   16      C      -2.5103100000    -4.4249870000    -2.1045290000
   17      C      -1.9361530000    -2.0366270000    -1.6253770000
   18      N      -2.6914510000    -3.0491560000    -2.2578730000
   19      O       2.0342220000    -7.3531310000     1.7155610000
   20      O       3.0140440000    -2.9868540000     2.5288580000
   21      O      -3.2096220000    -5.2489460000    -2.6903850000
   22      O      -2.2515290000    -0.8788290000    -1.8918760000
   23      C       3.5730320000    -5.5637990000     3.0027110000
   24      H       3.6069320000    -6.6640850000     3.0326550000
   25      H       3.3828880000    -5.1471010000     4.0103260000
   26      H       4.5331250000    -5.1487850000     2.6407110000
   27      C      -3.7568320000    -2.5874870000    -3.1524080000
   28      H      -4.2497780000    -3.4833290000    -3.5646530000
   29      H      -3.3287590000    -1.9649720000    -3.9609050000
   30      H      -4.4777090000    -1.9629320000    -2.5914220000
   31      C       0.0000000000     0.0000000000     0.0000000000
   32      S       0.3350260000     0.7189420000     1.5805300000
   33      C       1.0271300000     2.2032260000     0.9049110000
   34      C       0.4216170000     0.9045570000    -0.9854000000
   35      C       0.9794850000     2.1011440000    -0.4935280000
   36      H       0.3220490000     0.6909780000    -2.0599340000
   37      H       1.3517180000     2.8995710000    -1.1525930000
   38      H       1.3992460000     3.0014300000     1.5560250000
   39      H       0.4616230000    -7.3615890000    -0.7833140000
   40      H      -0.6939830000    -7.3611920000     0.5926770000
   41      H       0.6946170000    -1.4788310000    -0.8269870000
 ----------------------------------------------------------------

   11   -1571.7343750930      5.69e-07  Convergence criterion met
 Total energy in the final basis set =    -1571.7343750930
        RIMP2         total energy =     -1576.3931134302 a.u.

                    Orbital Energies (a.u.)
 --------------------------------------------------------------

 Alpha MOs
 -- Occupied --
-91.9906 -20.5531 -20.5445 -20.5412 -20.5404 -15.6272 -15.6210 -11.3939
-11.3851 -11.3831 -11.3790 -11.3074 -11.3073 -11.3045 -11.3042 -11.2970
-11.2960 -11.2898 -11.2824 -11.2681 -11.2677 -11.2647 -11.2631 -11.2593
-11.2546 -11.2522 -11.2515  -8.9905  -6.6713  -6.6708  -6.6703  -1.4199
 -1.4119  -1.3975  -1.3911  -1.2623  -1.2552  -1.2307  -1.1885  -1.1521
 -1.1138  -1.0861  -1.0466  -0.9963  -0.9879  -0.9867  -0.9551  -0.9498
 -0.8967  -0.8879  -0.8763  -0.8592  -0.7957  -0.7787  -0.7706  -0.7611
 -0.7409  -0.7168  -0.7030  -0.6919  -0.6823  -0.6716  -0.6666  -0.6571
 -0.6469  -0.6447  -0.6363  -0.6324  -0.6305  -0.6275  -0.6221  -0.6044
 -0.5867  -0.5752  -0.5668  -0.5613  -0.5565  -0.5513  -0.5506  -0.5494
 -0.5475  -0.5434  -0.5192  -0.5127  -0.5095  -0.4848  -0.4760  -0.4659
 -0.4577  -0.4513  -0.4426  -0.4343  -0.4136  -0.4073  -0.3562  -0.3505
 -0.3308  -0.2833

          Ground-State Mulliken Net Atomic Charges

     Atom                 Charge (a.u.)
  ----------------------------------------
      1 C                    -0.084568
      2 C                    -0.032153
      3 C                    -0.112652
      4 C                    -0.122063
      5 H                     0.198498
      6 C                     0.021160
      7 C                     0.114714
      8 C                    -0.081430
      9 C                    -0.173198
     10 C                    -0.143568
     11 C                     0.169521
     12 H                     0.198895
     13 C                     0.342460
     14 C                     0.346489
     15 N                    -0.089763
     16 C                     0.357122
     17 C                     0.346510
     18 N                    -0.091194
     19 O                    -0.495219
     20 O                    -0.507205
     21 O                    -0.501484
     22 O                    -0.472586
     23 C                    -0.204906
     24 H                     0.139429
     25 H                     0.109273
     26 H                     0.108851
     27 C                    -0.197528
     28 H                     0.133388
     29 H                     0.110742
     30 H                     0.112317
     31 C                     0.015458
     32 S                     0.006511
     33 C                    -0.205737
     34 C                    -0.179546
     35 C                    -0.211165
     36 H                     0.185905
     37 H                     0.192019
     38 H                     0.211327
     39 H                     0.137068
     40 H                     0.137313
     41 H                     0.210995
  ----------------------------------------
  Sum of atomic charges =     0.000000

                    Cartesian Multipole Moments
 -----------------------------------------------------------------
    Charge (ESU x 10^10)
                 0.0000
    Dipole Moment (Debye)
         X       0.7307      Y       2.1950      Z      -2.2008
       Tot       3.1930
    Quadrupole Moments (Debye-Ang)
        XX    -180.2488     XY      10.1598     YY    -180.7498
        XZ     -16.2310     YZ       7.2997     ZZ    -169.8724

 Total job time:  288.79s(wall), 8836.45s(cpu)
        *  Thank you very much for using Q-Chem.  Have a nice day.  *
