 Q-Chem 5.4, Q-Chem, Inc., Pleasanton, CA (2021)
 Q-Chem 5.4.0 for Intel X86 EM64T Linux

User input:
--------------------------------------------------------------
$molecule
0 1
C	-0.253280	-6.741404	-0.043160
C	-1.539213	-6.155638	-0.269777
C	0.814295	-5.791452	0.145543
C	-1.813519	-4.803786	-0.318377
H	-2.403941	-6.821518	-0.422058
C	0.527140	-4.378638	0.094194
C	-0.783072	-3.838032	-0.137191
C	1.556403	-3.413062	0.275104
C	-1.067932	-2.426473	-0.188116
C	1.285420	-2.059348	0.226701
C	-0.000000	-1.478216	-0.000000
H	2.151147	-1.394783	0.378931
C	2.234582	-6.187987	0.397845
C	2.965273	-3.798164	0.523637
N	3.204744	-5.170003	0.567586
C	-3.226257	-4.424987	-0.567421
C	-2.489446	-2.036627	-0.439541
N	-3.459801	-3.049156	-0.609650
O	2.619468	-7.353131	0.468608
O	3.874668	-2.986854	0.683034
O	-4.124806	-5.248946	-0.725131
O	-2.895819	-0.878829	-0.512648
C	4.595691	-5.563799	0.813908
H	4.640022	-6.664085	0.822891
H	4.934830	-5.147101	1.781600
H	5.246157	-5.148785	0.020360
C	-4.829716	-2.587487	-0.851649
H	-5.462742	-3.483329	-0.962191
H	-4.863242	-1.964972	-1.765865
H	-5.173521	-1.962932	-0.005383
C	0.000000	0.000000	0.000000
S	0.607475	0.509994	1.580530
C	1.862020	1.562717	0.904911
C	0.764397	0.641624	-0.985400
C	1.775697	1.490335	-0.493528
H	0.583895	0.490135	-2.059934
H	2.450484	2.056643	-1.152593
H	2.536607	2.128872	1.556025
H	0.008120	-7.361589	-0.909181
H	-0.304668	-7.361192	0.860264
H	0.188062	-1.478831	-1.063500
$end

$rem
JOBTYPE		SP
EXCHANGE	HF
CORRELATION	pRIMP2
BASIS		cc-pvtz
METHOD		rimp2
AUX_BASIS	rimp2-cc-pvtz
SOLVENT_METHOD	PCM
PURECART	11111
SYMMETRY	false
MEM_TOTAL	110000
SCF_CONVERGENCE = 6
THRESH=10
GUI = 2
$end

$solvent
dielectric 4.90
$end
--------------------------------------------------------------

             Standard Nuclear Orientation (Angstroms)
    I     Atom           X                Y                Z
 ----------------------------------------------------------------
    1      C      -0.2532800000    -6.7414040000    -0.0431600000
    2      C      -1.5392130000    -6.1556380000    -0.2697770000
    3      C       0.8142950000    -5.7914520000     0.1455430000
    4      C      -1.8135190000    -4.8037860000    -0.3183770000
    5      H      -2.4039410000    -6.8215180000    -0.4220580000
    6      C       0.5271400000    -4.3786380000     0.0941940000
    7      C      -0.7830720000    -3.8380320000    -0.1371910000
    8      C       1.5564030000    -3.4130620000     0.2751040000
    9      C      -1.0679320000    -2.4264730000    -0.1881160000
   10      C       1.2854200000    -2.0593480000     0.2267010000
   11      C       0.0000000000    -1.4782160000     0.0000000000
   12      H       2.1511470000    -1.3947830000     0.3789310000
   13      C       2.2345820000    -6.1879870000     0.3978450000
   14      C       2.9652730000    -3.7981640000     0.5236370000
   15      N       3.2047440000    -5.1700030000     0.5675860000
   16      C      -3.2262570000    -4.4249870000    -0.5674210000
   17      C      -2.4894460000    -2.0366270000    -0.4395410000
   18      N      -3.4598010000    -3.0491560000    -0.6096500000
   19      O       2.6194680000    -7.3531310000     0.4686080000
   20      O       3.8746680000    -2.9868540000     0.6830340000
   21      O      -4.1248060000    -5.2489460000    -0.7251310000
   22      O      -2.8958190000    -0.8788290000    -0.5126480000
   23      C       4.5956910000    -5.5637990000     0.8139080000
   24      H       4.6400220000    -6.6640850000     0.8228910000
   25      H       4.9348300000    -5.1471010000     1.7816000000
   26      H       5.2461570000    -5.1487850000     0.0203600000
   27      C      -4.8297160000    -2.5874870000    -0.8516490000
   28      H      -5.4627420000    -3.4833290000    -0.9621910000
   29      H      -4.8632420000    -1.9649720000    -1.7658650000
   30      H      -5.1735210000    -1.9629320000    -0.0053830000
   31      C       0.0000000000     0.0000000000     0.0000000000
   32      S       0.6074750000     0.5099940000     1.5805300000
   33      C       1.8620200000     1.5627170000     0.9049110000
   34      C       0.7643970000     0.6416240000    -0.9854000000
   35      C       1.7756970000     1.4903350000    -0.4935280000
   36      H       0.5838950000     0.4901350000    -2.0599340000
   37      H       2.4504840000     2.0566430000    -1.1525930000
   38      H       2.5366070000     2.1288720000     1.5560250000
   39      H       0.0081200000    -7.3615890000    -0.9091810000
   40      H      -0.3046680000    -7.3611920000     0.8602640000
   41      H       0.1880620000    -1.4788310000    -1.0635000000
 ----------------------------------------------------------------

   11   -1571.7056253659      5.53e-07  Convergence criterion met
 Total energy in the final basis set =    -1571.7056253659
        RIMP2         total energy =     -1576.3712376531 a.u.

                    Orbital Energies (a.u.)
 --------------------------------------------------------------

 Alpha MOs
 -- Occupied --
-91.9905 -20.5517 -20.5432 -20.5403 -20.5398 -15.6258 -15.6202 -11.3919
-11.3837 -11.3821 -11.3782 -11.3062 -11.3033 -11.3023 -11.3008 -11.2980
-11.2932 -11.2844 -11.2831 -11.2689 -11.2663 -11.2658 -11.2629 -11.2621
-11.2589 -11.2563 -11.2507  -8.9908  -6.6715  -6.6708  -6.6705  -1.4183
 -1.4112  -1.3960  -1.3904  -1.2608  -1.2544  -1.2311  -1.1924  -1.1522
 -1.1119  -1.0837  -1.0444  -0.9995  -0.9929  -0.9864  -0.9543  -0.9486
 -0.8951  -0.8853  -0.8742  -0.8568  -0.7954  -0.7778  -0.7690  -0.7658
 -0.7428  -0.7170  -0.7038  -0.6905  -0.6829  -0.6704  -0.6653  -0.6562
 -0.6455  -0.6429  -0.6349  -0.6331  -0.6293  -0.6259  -0.6204  -0.6040
 -0.5833  -0.5791  -0.5709  -0.5604  -0.5555  -0.5505  -0.5502  -0.5477
 -0.5467  -0.5425  -0.5222  -0.5083  -0.4990  -0.4839  -0.4745  -0.4633
 -0.4577  -0.4501  -0.4417  -0.4329  -0.4124  -0.4064  -0.3642  -0.3447
 -0.3327  -0.2864

          Ground-State Mulliken Net Atomic Charges

     Atom                 Charge (a.u.)
  ----------------------------------------
      1 C                    -0.086521
      2 C                    -0.036403
      3 C                    -0.111521
      4 C                    -0.119881
      5 H                     0.197224
      6 C                     0.016957
      7 C                     0.121115
      8 C                    -0.112363
      9 C                    -0.194380
     10 C                    -0.122685
     11 C                     0.170171
     12 H                     0.198593
     13 C                     0.343299
     14 C                     0.339799
     15 N                    -0.089434
     16 C                     0.356235
     17 C                     0.357387
     18 N                    -0.091189
     19 O                    -0.496185
     20 O                    -0.509246
     21 O                    -0.502487
     22 O                    -0.468050
     23 C                    -0.205484
     24 H                     0.139464
     25 H                     0.108882
     26 H                     0.108499
     27 C                    -0.197947
     28 H                     0.132912
     29 H                     0.110738
     30 H                     0.111810
     31 C                    -0.029684
     32 S                     0.020386
     33 C                    -0.164835
     34 C                    -0.148379
     35 C                    -0.211843
     36 H                     0.188304
     37 H                     0.194371
     38 H                     0.213823
     39 H                     0.135711
     40 H                     0.136042
     41 H                     0.196794
  ----------------------------------------
  Sum of atomic charges =     0.000000

                    Cartesian Multipole Moments
 -----------------------------------------------------------------
    Charge (ESU x 10^10)
                 0.0000
    Dipole Moment (Debye)
         X       1.3727      Y       2.8167      Z      -1.9153
       Tot       3.6723
    Quadrupole Moments (Debye-Ang)
        XX    -188.5386     XY      14.6290     YY    -187.7926
        XZ      -5.0629     YZ       3.2578     ZZ    -156.6530

 Total job time:  308.86s(wall), 9241.40s(cpu)
        *  Thank you very much for using Q-Chem.  Have a nice day.  *
