 Q-Chem 5.4, Q-Chem, Inc., Pleasanton, CA (2021)
 Q-Chem 5.4.0 for Intel X86 EM64T Linux

User input:
--------------------------------------------------------------
$molecule
0 1
C	0.252767	-6.741404	-0.046070
C	1.538656	-6.155638	-0.272935
C	-0.814966	-5.791452	0.141739
C	1.813042	-4.803786	-0.321083
H	2.403318	-6.821518	-0.425592
C	-0.527566	-4.378638	0.091779
C	0.782769	-3.838032	-0.138909
C	-1.556632	-3.413062	0.273808
C	1.067868	-2.426473	-0.188483
C	-1.285436	-2.059348	0.226610
C	0.000000	-1.478216	0.000000
H	-2.151019	-1.394783	0.379657
C	-2.235891	-6.187987	0.390420
C	-2.965540	-3.798164	0.522125
N	-3.205600	-5.170003	0.562731
C	3.225760	-4.424987	-0.570244
C	2.489646	-2.036627	-0.438407
N	3.459662	-3.049156	-0.610438
O	-2.621768	-7.353131	0.455563
O	-3.874608	-2.986854	0.683373
O	4.124059	-5.248946	-0.729367
O	2.896516	-0.878829	-0.508697
C	-4.596910	-5.563799	0.806996
H	-4.641640	-6.664085	0.813717
H	-5.246567	-5.147101	0.013655
H	-4.936739	-5.148785	1.775159
C	4.829729	-2.587487	-0.851572
H	5.462387	-3.483329	-0.964204
H	5.173914	-1.964972	-0.003956
H	4.863360	-1.962932	-1.764390
C	0.000000	0.000000	0.000000
S	0.068929	0.790170	1.580530
C	0.211639	2.421655	0.904911
C	0.086813	0.994207	-0.985400
C	0.201782	2.309433	-0.493528
H	0.066299	0.759454	-2.059934
H	0.278488	3.187020	-1.152593
H	0.288312	3.298992	1.556025
H	0.303328	-7.361589	0.857128
H	-0.007933	-7.361192	-0.912587
H	0.187017	-1.478831	1.063684
$end

$rem
JOBTYPE		SP
EXCHANGE	HF
CORRELATION	pRIMP2
BASIS		cc-pvtz
METHOD		rimp2
AUX_BASIS	rimp2-cc-pvtz
SOLVENT_METHOD	PCM
PURECART	11111
SYMMETRY	false
MEM_TOTAL	110000
SCF_CONVERGENCE = 6
THRESH=10
GUI = 2
$end

$solvent
dielectric 4.90
$end
--------------------------------------------------------------

             Standard Nuclear Orientation (Angstroms)
    I     Atom           X                Y                Z
 ----------------------------------------------------------------
    1      C       0.2527670000    -6.7414040000    -0.0460700000
    2      C       1.5386560000    -6.1556380000    -0.2729350000
    3      C      -0.8149660000    -5.7914520000     0.1417390000
    4      C       1.8130420000    -4.8037860000    -0.3210830000
    5      H       2.4033180000    -6.8215180000    -0.4255920000
    6      C      -0.5275660000    -4.3786380000     0.0917790000
    7      C       0.7827690000    -3.8380320000    -0.1389090000
    8      C      -1.5566320000    -3.4130620000     0.2738080000
    9      C       1.0678680000    -2.4264730000    -0.1884830000
   10      C      -1.2854360000    -2.0593480000     0.2266100000
   11      C       0.0000000000    -1.4782160000     0.0000000000
   12      H      -2.1510190000    -1.3947830000     0.3796570000
   13      C      -2.2358910000    -6.1879870000     0.3904200000
   14      C      -2.9655400000    -3.7981640000     0.5221250000
   15      N      -3.2056000000    -5.1700030000     0.5627310000
   16      C       3.2257600000    -4.4249870000    -0.5702440000
   17      C       2.4896460000    -2.0366270000    -0.4384070000
   18      N       3.4596620000    -3.0491560000    -0.6104380000
   19      O      -2.6217680000    -7.3531310000     0.4555630000
   20      O      -3.8746080000    -2.9868540000     0.6833730000
   21      O       4.1240590000    -5.2489460000    -0.7293670000
   22      O       2.8965160000    -0.8788290000    -0.5086970000
   23      C      -4.5969100000    -5.5637990000     0.8069960000
   24      H      -4.6416400000    -6.6640850000     0.8137170000
   25      H      -5.2465670000    -5.1471010000     0.0136550000
   26      H      -4.9367390000    -5.1487850000     1.7751590000
   27      C       4.8297290000    -2.5874870000    -0.8515720000
   28      H       5.4623870000    -3.4833290000    -0.9642040000
   29      H       5.1739140000    -1.9649720000    -0.0039560000
   30      H       4.8633600000    -1.9629320000    -1.7643900000
   31      C       0.0000000000     0.0000000000     0.0000000000
   32      S       0.0689290000     0.7901700000     1.5805300000
   33      C       0.2116390000     2.4216550000     0.9049110000
   34      C       0.0868130000     0.9942070000    -0.9854000000
   35      C       0.2017820000     2.3094330000    -0.4935280000
   36      H       0.0662990000     0.7594540000    -2.0599340000
   37      H       0.2784880000     3.1870200000    -1.1525930000
   38      H       0.2883120000     3.2989920000     1.5560250000
   39      H       0.3033280000    -7.3615890000     0.8571280000
   40      H      -0.0079330000    -7.3611920000    -0.9125870000
   41      H       0.1870170000    -1.4788310000     1.0636840000
 ----------------------------------------------------------------

   11   -1571.7457606789      5.57e-07  Convergence criterion met
 Total energy in the final basis set =    -1571.7457606789
        RIMP2         total energy =     -1576.3997176721 a.u.

                    Orbital Energies (a.u.)
 --------------------------------------------------------------

 Alpha MOs
 -- Occupied --
-91.9938 -20.5514 -20.5443 -20.5420 -20.5406 -15.6266 -15.6213 -11.3928
-11.3850 -11.3838 -11.3792 -11.3086 -11.3085 -11.3049 -11.3046 -11.2965
-11.2942 -11.2893 -11.2826 -11.2696 -11.2681 -11.2646 -11.2626 -11.2594
-11.2529 -11.2524 -11.2510  -8.9934  -6.6742  -6.6738  -6.6731  -1.4189
 -1.4123  -1.3968  -1.3915  -1.2618  -1.2555  -1.2300  -1.1870  -1.1527
 -1.1141  -1.0869  -1.0466  -0.9963  -0.9877  -0.9844  -0.9550  -0.9511
 -0.8961  -0.8872  -0.8766  -0.8600  -0.7936  -0.7757  -0.7732  -0.7686
 -0.7394  -0.7161  -0.7042  -0.6914  -0.6772  -0.6705  -0.6675  -0.6571
 -0.6470  -0.6413  -0.6381  -0.6319  -0.6309  -0.6268  -0.6227  -0.6052
 -0.5847  -0.5751  -0.5661  -0.5611  -0.5569  -0.5512  -0.5501  -0.5479
 -0.5458  -0.5436  -0.5211  -0.5174  -0.5087  -0.4808  -0.4748  -0.4695
 -0.4577  -0.4510  -0.4428  -0.4348  -0.4131  -0.4075  -0.3570  -0.3512
 -0.3274  -0.2906

          Ground-State Mulliken Net Atomic Charges

     Atom                 Charge (a.u.)
  ----------------------------------------
      1 C                    -0.084749
      2 C                    -0.030145
      3 C                    -0.110397
      4 C                    -0.121343
      5 H                     0.198619
      6 C                     0.009549
      7 C                     0.122123
      8 C                    -0.082223
      9 C                    -0.166557
     10 C                    -0.142081
     11 C                     0.249392
     12 H                     0.192933
     13 C                     0.343789
     14 C                     0.351151
     15 N                    -0.090341
     16 C                     0.357434
     17 C                     0.349991
     18 N                    -0.091207
     19 O                    -0.493819
     20 O                    -0.507098
     21 O                    -0.501812
     22 O                    -0.470575
     23 C                    -0.204722
     24 H                     0.139466
     25 H                     0.109201
     26 H                     0.109157
     27 C                    -0.197137
     28 H                     0.133080
     29 H                     0.111721
     30 H                     0.111369
     31 C                    -0.076915
     32 S                     0.010549
     33 C                    -0.215745
     34 C                    -0.161068
     35 C                    -0.205323
     36 H                     0.187520
     37 H                     0.191121
     38 H                     0.212871
     39 H                     0.137715
     40 H                     0.137894
     41 H                     0.186613
  ----------------------------------------
  Sum of atomic charges =     0.000000

                    Cartesian Multipole Moments
 -----------------------------------------------------------------
    Charge (ESU x 10^10)
                 0.0000
    Dipole Moment (Debye)
         X       1.1777      Y       2.3237      Z      -0.4144
       Tot       2.6379
    Quadrupole Moments (Debye-Ang)
        XX    -194.9362     XY      -7.6952     YY    -177.0756
        XZ       5.8484     YZ       1.0103     ZZ    -157.1852

 Total job time:  323.41s(wall), 8984.85s(cpu)
        *  Thank you very much for using Q-Chem.  Have a nice day.  *
