 Q-Chem 5.4, Q-Chem, Inc., Pleasanton, CA (2021)
 Q-Chem 5.4.0 for Intel X86 EM64T Linux

User input:
--------------------------------------------------------------
$molecule
0 1
C	-0.195868	-6.741404	0.166281
C	-1.196048	-6.155638	1.005696
C	0.634911	-5.791452	-0.530233
C	-1.409599	-4.803786	1.184587
H	-1.868538	-6.821518	1.570232
C	0.410996	-4.378638	-0.343266
C	-0.608444	-3.838032	0.511683
C	1.211179	-3.413062	-1.015440
C	-0.830559	-2.426473	0.697165
C	0.999915	-2.059348	-0.838968
C	-0.000000	-1.478216	-0.000000
H	1.673009	-1.394783	-1.404302
C	1.741129	-6.187987	-1.456059
C	2.307170	-3.798164	-1.934944
N	2.494766	-5.170003	-2.090139
C	-2.508468	-4.424987	2.106725
C	-1.936893	-2.036627	1.624494
N	-2.690936	-3.049156	2.258486
O	2.042736	-7.353131	-1.705414
O	3.013823	-2.986854	-2.529122
O	-3.206857	-5.248946	2.693680
O	-2.254108	-0.878829	1.888802
C	3.577543	-5.563799	-2.997334
H	3.612920	-6.664085	-3.025519
H	4.536833	-5.147101	-2.635109
H	3.387762	-5.148785	-4.005702
C	-3.756883	-2.587487	3.152347
H	-4.248464	-3.483329	3.566218
H	-4.478763	-1.964972	2.590383
H	-3.329599	-1.962932	3.959687
C	0.000000	0.000000	0.000000
S	0.607475	0.509994	1.580530
C	1.862020	1.562717	0.904911
C	0.764397	0.641624	-0.985400
C	1.775697	1.490335	-0.493528
H	0.583895	0.490135	-2.059934
H	2.450484	2.056643	-1.152593
H	2.536607	2.128872	1.556025
H	-0.691254	-7.361589	-0.590631
H	0.463164	-7.361192	0.786357
H	-0.693804	-1.478831	-0.827669
$end

$rem
JOBTYPE		SP
EXCHANGE	HF
CORRELATION	pRIMP2
BASIS		cc-pvtz
METHOD		rimp2
AUX_BASIS	rimp2-cc-pvtz
SOLVENT_METHOD	PCM
PURECART	11111
SYMMETRY	false
MEM_TOTAL	110000
SCF_CONVERGENCE = 6
THRESH=10
GUI = 2
$end

$solvent
dielectric 4.90
$end
--------------------------------------------------------------

             Standard Nuclear Orientation (Angstroms)
    I     Atom           X                Y                Z
 ----------------------------------------------------------------
    1      C      -0.1958680000    -6.7414040000     0.1662810000
    2      C      -1.1960480000    -6.1556380000     1.0056960000
    3      C       0.6349110000    -5.7914520000    -0.5302330000
    4      C      -1.4095990000    -4.8037860000     1.1845870000
    5      H      -1.8685380000    -6.8215180000     1.5702320000
    6      C       0.4109960000    -4.3786380000    -0.3432660000
    7      C      -0.6084440000    -3.8380320000     0.5116830000
    8      C       1.2111790000    -3.4130620000    -1.0154400000
    9      C      -0.8305590000    -2.4264730000     0.6971650000
   10      C       0.9999150000    -2.0593480000    -0.8389680000
   11      C       0.0000000000    -1.4782160000     0.0000000000
   12      H       1.6730090000    -1.3947830000    -1.4043020000
   13      C       1.7411290000    -6.1879870000    -1.4560590000
   14      C       2.3071700000    -3.7981640000    -1.9349440000
   15      N       2.4947660000    -5.1700030000    -2.0901390000
   16      C      -2.5084680000    -4.4249870000     2.1067250000
   17      C      -1.9368930000    -2.0366270000     1.6244940000
   18      N      -2.6909360000    -3.0491560000     2.2584860000
   19      O       2.0427360000    -7.3531310000    -1.7054140000
   20      O       3.0138230000    -2.9868540000    -2.5291220000
   21      O      -3.2068570000    -5.2489460000     2.6936800000
   22      O      -2.2541080000    -0.8788290000     1.8888020000
   23      C       3.5775430000    -5.5637990000    -2.9973340000
   24      H       3.6129200000    -6.6640850000    -3.0255190000
   25      H       4.5368330000    -5.1471010000    -2.6351090000
   26      H       3.3877620000    -5.1487850000    -4.0057020000
   27      C      -3.7568830000    -2.5874870000     3.1523470000
   28      H      -4.2484640000    -3.4833290000     3.5662180000
   29      H      -4.4787630000    -1.9649720000     2.5903830000
   30      H      -3.3295990000    -1.9629320000     3.9596870000
   31      C       0.0000000000     0.0000000000     0.0000000000
   32      S       0.6074750000     0.5099940000     1.5805300000
   33      C       1.8620200000     1.5627170000     0.9049110000
   34      C       0.7643970000     0.6416240000    -0.9854000000
   35      C       1.7756970000     1.4903350000    -0.4935280000
   36      H       0.5838950000     0.4901350000    -2.0599340000
   37      H       2.4504840000     2.0566430000    -1.1525930000
   38      H       2.5366070000     2.1288720000     1.5560250000
   39      H      -0.6912540000    -7.3615890000    -0.5906310000
   40      H       0.4631640000    -7.3611920000     0.7863570000
   41      H      -0.6938040000    -1.4788310000    -0.8276690000
 ----------------------------------------------------------------

   11   -1571.7010091499      5.89e-07  Convergence criterion met
 Total energy in the final basis set =    -1571.7010091499
        RIMP2         total energy =     -1576.3689023946 a.u.

                    Orbital Energies (a.u.)
 --------------------------------------------------------------

 Alpha MOs
 -- Occupied --
-91.9867 -20.5532 -20.5439 -20.5394 -20.5393 -15.6267 -15.6201 -11.3936
-11.3845 -11.3813 -11.3778 -11.3064 -11.3057 -11.3033 -11.3030 -11.2969
-11.2952 -11.2858 -11.2795 -11.2690 -11.2669 -11.2650 -11.2624 -11.2612
-11.2589 -11.2544 -11.2510  -8.9869  -6.6676  -6.6668  -6.6665  -1.4199
 -1.4107  -1.3972  -1.3899  -1.2618  -1.2541  -1.2307  -1.1909  -1.1525
 -1.1124  -1.0844  -1.0455  -0.9984  -0.9906  -0.9867  -0.9545  -0.9490
 -0.8956  -0.8865  -0.8752  -0.8578  -0.7926  -0.7766  -0.7726  -0.7663
 -0.7386  -0.7163  -0.7035  -0.6916  -0.6822  -0.6721  -0.6662  -0.6564
 -0.6460  -0.6433  -0.6373  -0.6324  -0.6295  -0.6264  -0.6204  -0.6049
 -0.5860  -0.5749  -0.5734  -0.5612  -0.5572  -0.5509  -0.5499  -0.5467
 -0.5455  -0.5432  -0.5269  -0.5085  -0.5034  -0.4792  -0.4728  -0.4596
 -0.4547  -0.4502  -0.4413  -0.4330  -0.4129  -0.4063  -0.3553  -0.3509
 -0.3338  -0.2807

          Ground-State Mulliken Net Atomic Charges

     Atom                 Charge (a.u.)
  ----------------------------------------
      1 C                    -0.084801
      2 C                    -0.032880
      3 C                    -0.114453
      4 C                    -0.120806
      5 H                     0.198217
      6 C                     0.021528
      7 C                     0.115007
      8 C                    -0.085403
      9 C                    -0.195272
     10 C                    -0.176892
     11 C                     0.230292
     12 H                     0.193630
     13 C                     0.340121
     14 C                     0.346936
     15 N                    -0.088895
     16 C                     0.356123
     17 C                     0.354910
     18 N                    -0.089982
     19 O                    -0.498103
     20 O                    -0.511936
     21 O                    -0.501794
     22 O                    -0.472806
     23 C                    -0.205470
     24 H                     0.139452
     25 H                     0.108722
     26 H                     0.108350
     27 C                    -0.198245
     28 H                     0.133196
     29 H                     0.111608
     30 H                     0.112013
     31 C                    -0.080114
     32 S                     0.038908
     33 C                    -0.168713
     34 C                    -0.152736
     35 C                    -0.213351
     36 H                     0.197836
     37 H                     0.193986
     38 H                     0.213648
     39 H                     0.136027
     40 H                     0.136436
     41 H                     0.205705
  ----------------------------------------
  Sum of atomic charges =     0.000000

                    Cartesian Multipole Moments
 -----------------------------------------------------------------
    Charge (ESU x 10^10)
                 0.0000
    Dipole Moment (Debye)
         X       0.6735      Y       2.6892      Z      -0.9003
       Tot       2.9148
    Quadrupole Moments (Debye-Ang)
        XX    -175.2698     XY      14.6020     YY    -187.6883
        XZ      17.4764     YZ      -4.7333     ZZ    -169.8938

 Total job time:  432.81s(wall), 9771.91s(cpu)
        *  Thank you very much for using Q-Chem.  Have a nice day.  *
