 Q-Chem 5.4, Q-Chem, Inc., Pleasanton, CA (2021)
 Q-Chem 5.4.0 for Intel X86 EM64T Linux

User input:
--------------------------------------------------------------
$molecule
0 1
C	0.195868	-6.741404	-0.166281
C	1.196048	-6.155638	-1.005696
C	-0.634911	-5.791452	0.530233
C	1.409599	-4.803786	-1.184587
H	1.868538	-6.821518	-1.570232
C	-0.410996	-4.378638	0.343266
C	0.608444	-3.838032	-0.511683
C	-1.211179	-3.413062	1.015440
C	0.830559	-2.426473	-0.697165
C	-0.999915	-2.059348	0.838968
C	0.000000	-1.478216	0.000000
H	-1.673009	-1.394783	1.404302
C	-1.741129	-6.187987	1.456059
C	-2.307170	-3.798164	1.934944
N	-2.494766	-5.170003	2.090139
C	2.508468	-4.424987	-2.106725
C	1.936893	-2.036627	-1.624494
N	2.690936	-3.049156	-2.258486
O	-2.042736	-7.353131	1.705414
O	-3.013823	-2.986854	2.529122
O	3.206857	-5.248946	-2.693680
O	2.254108	-0.878829	-1.888802
C	-3.577543	-5.563799	2.997334
H	-3.612920	-6.664085	3.025519
H	-4.536833	-5.147101	2.635109
H	-3.387762	-5.148785	4.005702
C	3.756883	-2.587487	-3.152347
H	4.248464	-3.483329	-3.566218
H	4.478763	-1.964972	-2.590383
H	3.329599	-1.962932	-3.959687
C	0.000000	0.000000	0.000000
S	0.205093	0.766196	1.580530
C	0.628939	2.348114	0.904911
C	0.258137	0.964028	-0.985400
C	0.599745	2.239309	-0.493528
H	0.197169	0.736404	-2.059934
H	0.827678	3.090243	-1.152593
H	0.856796	3.198808	1.556025
H	0.691254	-7.361589	0.590631
H	-0.463164	-7.361192	-0.786357
H	0.693804	-1.478831	0.827669
$end

$rem
JOBTYPE		SP
EXCHANGE	HF
CORRELATION	pRIMP2
BASIS		cc-pvtz
METHOD		rimp2
AUX_BASIS	rimp2-cc-pvtz
SOLVENT_METHOD	PCM
PURECART	11111
SYMMETRY	false
MEM_TOTAL	110000
SCF_CONVERGENCE = 6
THRESH=10
GUI = 2
$end

$solvent
dielectric 4.90
$end
--------------------------------------------------------------

             Standard Nuclear Orientation (Angstroms)
    I     Atom           X                Y                Z
 ----------------------------------------------------------------
    1      C       0.1958680000    -6.7414040000    -0.1662810000
    2      C       1.1960480000    -6.1556380000    -1.0056960000
    3      C      -0.6349110000    -5.7914520000     0.5302330000
    4      C       1.4095990000    -4.8037860000    -1.1845870000
    5      H       1.8685380000    -6.8215180000    -1.5702320000
    6      C      -0.4109960000    -4.3786380000     0.3432660000
    7      C       0.6084440000    -3.8380320000    -0.5116830000
    8      C      -1.2111790000    -3.4130620000     1.0154400000
    9      C       0.8305590000    -2.4264730000    -0.6971650000
   10      C      -0.9999150000    -2.0593480000     0.8389680000
   11      C       0.0000000000    -1.4782160000     0.0000000000
   12      H      -1.6730090000    -1.3947830000     1.4043020000
   13      C      -1.7411290000    -6.1879870000     1.4560590000
   14      C      -2.3071700000    -3.7981640000     1.9349440000
   15      N      -2.4947660000    -5.1700030000     2.0901390000
   16      C       2.5084680000    -4.4249870000    -2.1067250000
   17      C       1.9368930000    -2.0366270000    -1.6244940000
   18      N       2.6909360000    -3.0491560000    -2.2584860000
   19      O      -2.0427360000    -7.3531310000     1.7054140000
   20      O      -3.0138230000    -2.9868540000     2.5291220000
   21      O       3.2068570000    -5.2489460000    -2.6936800000
   22      O       2.2541080000    -0.8788290000    -1.8888020000
   23      C      -3.5775430000    -5.5637990000     2.9973340000
   24      H      -3.6129200000    -6.6640850000     3.0255190000
   25      H      -4.5368330000    -5.1471010000     2.6351090000
   26      H      -3.3877620000    -5.1487850000     4.0057020000
   27      C       3.7568830000    -2.5874870000    -3.1523470000
   28      H       4.2484640000    -3.4833290000    -3.5662180000
   29      H       4.4787630000    -1.9649720000    -2.5903830000
   30      H       3.3295990000    -1.9629320000    -3.9596870000
   31      C       0.0000000000     0.0000000000     0.0000000000
   32      S       0.2050930000     0.7661960000     1.5805300000
   33      C       0.6289390000     2.3481140000     0.9049110000
   34      C       0.2581370000     0.9640280000    -0.9854000000
   35      C       0.5997450000     2.2393090000    -0.4935280000
   36      H       0.1971690000     0.7364040000    -2.0599340000
   37      H       0.8276780000     3.0902430000    -1.1525930000
   38      H       0.8567960000     3.1988080000     1.5560250000
   39      H       0.6912540000    -7.3615890000     0.5906310000
   40      H      -0.4631640000    -7.3611920000    -0.7863570000
   41      H       0.6938040000    -1.4788310000     0.8276690000
 ----------------------------------------------------------------

   11   -1571.7392727353      5.71e-07  Convergence criterion met
 Total energy in the final basis set =    -1571.7392727353
        RIMP2         total energy =     -1576.3953981210 a.u.

                    Orbital Energies (a.u.)
 --------------------------------------------------------------

 Alpha MOs
 -- Occupied --
-91.9910 -20.5507 -20.5445 -20.5417 -20.5405 -15.6269 -15.6212 -11.3932
-11.3852 -11.3835 -11.3791 -11.3085 -11.3081 -11.3052 -11.3047 -11.2965
-11.2917 -11.2889 -11.2822 -11.2691 -11.2681 -11.2651 -11.2631 -11.2593
-11.2527 -11.2509 -11.2494  -8.9909  -6.6718  -6.6714  -6.6707  -1.4194
 -1.4121  -1.3972  -1.3913  -1.2621  -1.2554  -1.2303  -1.1871  -1.1518
 -1.1140  -1.0868  -1.0468  -0.9959  -0.9878  -0.9831  -0.9550  -0.9503
 -0.8961  -0.8875  -0.8769  -0.8602  -0.7933  -0.7761  -0.7710  -0.7664
 -0.7410  -0.7152  -0.7028  -0.6907  -0.6768  -0.6721  -0.6671  -0.6572
 -0.6472  -0.6441  -0.6381  -0.6315  -0.6308  -0.6270  -0.6226  -0.6050
 -0.5862  -0.5735  -0.5654  -0.5604  -0.5568  -0.5515  -0.5497  -0.5476
 -0.5474  -0.5436  -0.5219  -0.5155  -0.5085  -0.4826  -0.4750  -0.4675
 -0.4574  -0.4512  -0.4428  -0.4347  -0.4133  -0.4075  -0.3535  -0.3528
 -0.3289  -0.2837

          Ground-State Mulliken Net Atomic Charges

     Atom                 Charge (a.u.)
  ----------------------------------------
      1 C                    -0.085381
      2 C                    -0.029389
      3 C                    -0.112108
      4 C                    -0.126360
      5 H                     0.198732
      6 C                     0.015174
      7 C                     0.125594
      8 C                    -0.066972
      9 C                    -0.150883
     10 C                    -0.183606
     11 C                     0.243686
     12 H                     0.192423
     13 C                     0.344367
     14 C                     0.348755
     15 N                    -0.089638
     16 C                     0.357489
     17 C                     0.359226
     18 N                    -0.088512
     19 O                    -0.494462
     20 O                    -0.506779
     21 O                    -0.501811
     22 O                    -0.470625
     23 C                    -0.204695
     24 H                     0.139400
     25 H                     0.109183
     26 H                     0.109160
     27 C                    -0.197476
     28 H                     0.133516
     29 H                     0.111586
     30 H                     0.110927
     31 C                    -0.088381
     32 S                     0.008556
     33 C                    -0.217263
     34 C                    -0.148953
     35 C                    -0.204152
     36 H                     0.182724
     37 H                     0.190406
     38 H                     0.212666
     39 H                     0.137518
     40 H                     0.137861
     41 H                     0.198496
  ----------------------------------------
  Sum of atomic charges =     0.000000

                    Cartesian Multipole Moments
 -----------------------------------------------------------------
    Charge (ESU x 10^10)
                 0.0000
    Dipole Moment (Debye)
         X       1.8440      Y       2.2479      Z      -1.1825
       Tot       3.1387
    Quadrupole Moments (Debye-Ang)
        XX    -181.3337     XY      -4.6334     YY    -178.3667
        XZ      16.5206     YZ       5.1966     ZZ    -170.1282

 Total job time:  290.14s(wall), 8876.61s(cpu)
        *  Thank you very much for using Q-Chem.  Have a nice day.  *
