 Q-Chem 5.4, Q-Chem, Inc., Pleasanton, CA (2021)
 Q-Chem 5.4.0 for Intel X86 EM64T Linux

User input:
--------------------------------------------------------------
$molecule
0 1
C	0.164018	-6.741404	-0.197767
C	1.003240	-6.155638	-1.198109
C	-0.533192	-5.791452	0.632428
C	1.182482	-4.803786	-1.411364
H	1.567483	-6.821518	-1.870845
C	-0.345145	-4.378638	0.409419
C	0.510347	-3.838032	-0.609565
C	-1.016449	-3.413062	1.210332
C	0.696879	-2.426473	-0.830799
C	-0.839039	-2.059348	0.999856
C	0.000000	-1.478216	0.000000
H	-1.403737	-1.394783	1.673483
C	-1.461835	-6.187987	1.736282
C	-1.936119	-3.798164	2.306183
N	-2.093916	-5.170003	2.491597
C	2.104529	-4.424987	-2.510310
C	1.625377	-2.036627	-1.936153
N	2.257873	-3.049156	-2.691451
O	-1.715561	-7.353131	2.034222
O	-2.528858	-2.986854	3.014044
O	2.690385	-5.248946	-3.209622
O	1.891876	-0.878829	-2.251529
C	-3.002711	-5.563799	3.573032
H	-3.032655	-6.664085	3.606932
H	-4.010326	-5.147101	3.382888
H	-2.640711	-5.148785	4.533125
C	3.152408	-2.587487	-3.756832
H	3.564653	-3.483329	-4.249778
H	3.960905	-1.964972	-3.328759
H	2.591422	-1.962932	-4.477709
C	0.000000	0.000000	0.000000
S	0.396411	0.687007	1.580530
C	1.215245	2.105322	0.904911
C	0.498850	0.864369	-0.985400
C	1.158885	2.007781	-0.493528
H	0.381046	0.660280	-2.059934
H	1.599289	2.770727	-1.152593
H	1.655514	2.868056	1.556025
H	0.783314	-7.361589	0.461623
H	-0.592677	-7.361192	-0.693983
H	0.826987	-1.478831	0.694617
$end

$rem
JOBTYPE		SP
EXCHANGE	HF
CORRELATION	pRIMP2
BASIS		cc-pvtz
METHOD		rimp2
AUX_BASIS	rimp2-cc-pvtz
SOLVENT_METHOD	PCM
PURECART	11111
SYMMETRY	false
MEM_TOTAL	110000
SCF_CONVERGENCE = 6
THRESH=10
GUI = 2
$end

$solvent
dielectric 4.90
$end
--------------------------------------------------------------

             Standard Nuclear Orientation (Angstroms)
    I     Atom           X                Y                Z
 ----------------------------------------------------------------
    1      C       0.1640180000    -6.7414040000    -0.1977670000
    2      C       1.0032400000    -6.1556380000    -1.1981090000
    3      C      -0.5331920000    -5.7914520000     0.6324280000
    4      C       1.1824820000    -4.8037860000    -1.4113640000
    5      H       1.5674830000    -6.8215180000    -1.8708450000
    6      C      -0.3451450000    -4.3786380000     0.4094190000
    7      C       0.5103470000    -3.8380320000    -0.6095650000
    8      C      -1.0164490000    -3.4130620000     1.2103320000
    9      C       0.6968790000    -2.4264730000    -0.8307990000
   10      C      -0.8390390000    -2.0593480000     0.9998560000
   11      C       0.0000000000    -1.4782160000     0.0000000000
   12      H      -1.4037370000    -1.3947830000     1.6734830000
   13      C      -1.4618350000    -6.1879870000     1.7362820000
   14      C      -1.9361190000    -3.7981640000     2.3061830000
   15      N      -2.0939160000    -5.1700030000     2.4915970000
   16      C       2.1045290000    -4.4249870000    -2.5103100000
   17      C       1.6253770000    -2.0366270000    -1.9361530000
   18      N       2.2578730000    -3.0491560000    -2.6914510000
   19      O      -1.7155610000    -7.3531310000     2.0342220000
   20      O      -2.5288580000    -2.9868540000     3.0140440000
   21      O       2.6903850000    -5.2489460000    -3.2096220000
   22      O       1.8918760000    -0.8788290000    -2.2515290000
   23      C      -3.0027110000    -5.5637990000     3.5730320000
   24      H      -3.0326550000    -6.6640850000     3.6069320000
   25      H      -4.0103260000    -5.1471010000     3.3828880000
   26      H      -2.6407110000    -5.1487850000     4.5331250000
   27      C       3.1524080000    -2.5874870000    -3.7568320000
   28      H       3.5646530000    -3.4833290000    -4.2497780000
   29      H       3.9609050000    -1.9649720000    -3.3287590000
   30      H       2.5914220000    -1.9629320000    -4.4777090000
   31      C       0.0000000000     0.0000000000     0.0000000000
   32      S       0.3964110000     0.6870070000     1.5805300000
   33      C       1.2152450000     2.1053220000     0.9049110000
   34      C       0.4988500000     0.8643690000    -0.9854000000
   35      C       1.1588850000     2.0077810000    -0.4935280000
   36      H       0.3810460000     0.6602800000    -2.0599340000
   37      H       1.5992890000     2.7707270000    -1.1525930000
   38      H       1.6555140000     2.8680560000     1.5560250000
   39      H       0.7833140000    -7.3615890000     0.4616230000
   40      H      -0.5926770000    -7.3611920000    -0.6939830000
   41      H       0.8269870000    -1.4788310000     0.6946170000
 ----------------------------------------------------------------

   11   -1571.7197557584      5.74e-07  Convergence criterion met
 Total energy in the final basis set =    -1571.7197557584
        RIMP2         total energy =     -1576.3805390471 a.u.

                    Orbital Energies (a.u.)
 --------------------------------------------------------------

 Alpha MOs
 -- Occupied --
-91.9870 -20.5503 -20.5447 -20.5411 -20.5401 -15.6276 -15.6207 -11.3944
-11.3853 -11.3829 -11.3785 -11.3076 -11.3064 -11.3051 -11.3042 -11.2961
-11.2864 -11.2859 -11.2835 -11.2682 -11.2679 -11.2646 -11.2637 -11.2590
-11.2523 -11.2520 -11.2482  -8.9874  -6.6683  -6.6678  -6.6671  -1.4210
 -1.4117  -1.3982  -1.3908  -1.2629  -1.2550  -1.2301  -1.1876  -1.1510
 -1.1134  -1.0857  -1.0465  -0.9957  -0.9878  -0.9837  -0.9550  -0.9493
 -0.8957  -0.8868  -0.8769  -0.8600  -0.7920  -0.7768  -0.7710  -0.7652
 -0.7402  -0.7176  -0.7025  -0.6889  -0.6776  -0.6731  -0.6667  -0.6571
 -0.6471  -0.6453  -0.6374  -0.6311  -0.6305  -0.6277  -0.6225  -0.6044
 -0.5871  -0.5713  -0.5672  -0.5601  -0.5568  -0.5516  -0.5495  -0.5479
 -0.5473  -0.5431  -0.5211  -0.5136  -0.5069  -0.4820  -0.4740  -0.4653
 -0.4565  -0.4507  -0.4424  -0.4343  -0.4138  -0.4071  -0.3535  -0.3499
 -0.3294  -0.2796

          Ground-State Mulliken Net Atomic Charges

     Atom                 Charge (a.u.)
  ----------------------------------------
      1 C                    -0.085387
      2 C                    -0.030480
      3 C                    -0.113695
      4 C                    -0.125619
      5 H                     0.198427
      6 C                     0.016559
      7 C                     0.128620
      8 C                    -0.070705
      9 C                    -0.177613
     10 C                    -0.165582
     11 C                     0.209920
     12 H                     0.187028
     13 C                     0.343929
     14 C                     0.346070
     15 N                    -0.089512
     16 C                     0.357743
     17 C                     0.382204
     18 N                    -0.088358
     19 O                    -0.495234
     20 O                    -0.506992
     21 O                    -0.501727
     22 O                    -0.479215
     23 C                    -0.204922
     24 H                     0.139327
     25 H                     0.109156
     26 H                     0.109047
     27 C                    -0.198121
     28 H                     0.134012
     29 H                     0.111507
     30 H                     0.111076
     31 C                    -0.067104
     32 S                     0.001052
     33 C                    -0.209428
     34 C                    -0.149877
     35 C                    -0.199038
     36 H                     0.188511
     37 H                     0.191117
     38 H                     0.213586
     39 H                     0.137106
     40 H                     0.137487
     41 H                     0.205125
  ----------------------------------------
  Sum of atomic charges =     0.000000

                    Cartesian Multipole Moments
 -----------------------------------------------------------------
    Charge (ESU x 10^10)
                 0.0000
    Dipole Moment (Debye)
         X       2.5787      Y       2.2953      Z      -1.7031
       Tot       3.8495
    Quadrupole Moments (Debye-Ang)
        XX    -173.2892     XY      -1.6923     YY    -181.3102
        XZ      16.4581     YZ       6.5486     ZZ    -175.8002

 Total job time:  310.85s(wall), 8866.74s(cpu)
        *  Thank you very much for using Q-Chem.  Have a nice day.  *
