 Q-Chem 5.4, Q-Chem, Inc., Pleasanton, CA (2021)
 Q-Chem 5.4.0 for Intel X86 EM64T Linux

User input:
--------------------------------------------------------------
$molecule
0 1
C	-0.223244	-6.741404	-0.127184
C	-1.354118	-6.155638	-0.779949
C	0.715408	-5.791452	0.415271
C	-1.595259	-4.803786	-0.919437
H	-2.114613	-6.821518	-1.218801
C	0.463133	-4.378638	0.268806
C	-0.688925	-3.838032	-0.396744
C	1.368449	-3.413062	0.790835
C	-0.939189	-2.426473	-0.542026
C	1.130363	-2.059348	0.652669
C	0.000000	-1.478216	0.000000
H	1.891815	-1.394783	1.091814
C	1.963749	-6.187987	1.138124
C	2.607351	-3.798164	1.506241
N	2.817348	-5.170003	1.629443
C	-2.837621	-4.424987	-1.636646
C	-2.188982	-2.036627	-1.264474
N	-3.042637	-3.049156	-1.756205
O	2.301222	-7.353131	1.336258
O	3.407386	-2.986854	1.967056
O	-3.628041	-5.248946	-2.092167
O	-2.545844	-0.878829	-1.472160
C	4.040164	-5.563799	2.336642
H	4.078749	-6.664085	2.360245
H	4.027880	-5.147101	3.361968
H	4.922811	-5.148785	1.813424
C	-4.247167	-2.587487	-2.452149
H	-4.804209	-3.483329	-2.772531
H	-3.965991	-1.964972	-3.322697
H	-4.859678	-1.962932	-1.774507
C	0.000000	0.000000	0.000000
S	0.205093	0.766196	1.580530
C	0.628939	2.348114	0.904911
C	0.258137	0.964028	-0.985400
C	0.599745	2.239309	-0.493528
H	0.197169	0.736404	-2.059934
H	0.827678	3.090243	-1.152593
H	0.856796	3.198808	1.556025
H	0.318588	-7.361589	-0.851574
H	-0.580522	-7.361192	0.704181
H	0.540459	-1.478831	-0.935042
$end

$rem
JOBTYPE		SP
EXCHANGE	HF
CORRELATION	pRIMP2
BASIS		cc-pvtz
METHOD		rimp2
AUX_BASIS	rimp2-cc-pvtz
SOLVENT_METHOD	PCM
PURECART	11111
SYMMETRY	false
MEM_TOTAL	110000
SCF_CONVERGENCE = 6
THRESH=10
GUI = 2
$end

$solvent
dielectric 4.90
$end
--------------------------------------------------------------

             Standard Nuclear Orientation (Angstroms)
    I     Atom           X                Y                Z
 ----------------------------------------------------------------
    1      C      -0.2232440000    -6.7414040000    -0.1271840000
    2      C      -1.3541180000    -6.1556380000    -0.7799490000
    3      C       0.7154080000    -5.7914520000     0.4152710000
    4      C      -1.5952590000    -4.8037860000    -0.9194370000
    5      H      -2.1146130000    -6.8215180000    -1.2188010000
    6      C       0.4631330000    -4.3786380000     0.2688060000
    7      C      -0.6889250000    -3.8380320000    -0.3967440000
    8      C       1.3684490000    -3.4130620000     0.7908350000
    9      C      -0.9391890000    -2.4264730000    -0.5420260000
   10      C       1.1303630000    -2.0593480000     0.6526690000
   11      C       0.0000000000    -1.4782160000     0.0000000000
   12      H       1.8918150000    -1.3947830000     1.0918140000
   13      C       1.9637490000    -6.1879870000     1.1381240000
   14      C       2.6073510000    -3.7981640000     1.5062410000
   15      N       2.8173480000    -5.1700030000     1.6294430000
   16      C      -2.8376210000    -4.4249870000    -1.6366460000
   17      C      -2.1889820000    -2.0366270000    -1.2644740000
   18      N      -3.0426370000    -3.0491560000    -1.7562050000
   19      O       2.3012220000    -7.3531310000     1.3362580000
   20      O       3.4073860000    -2.9868540000     1.9670560000
   21      O      -3.6280410000    -5.2489460000    -2.0921670000
   22      O      -2.5458440000    -0.8788290000    -1.4721600000
   23      C       4.0401640000    -5.5637990000     2.3366420000
   24      H       4.0787490000    -6.6640850000     2.3602450000
   25      H       4.0278800000    -5.1471010000     3.3619680000
   26      H       4.9228110000    -5.1487850000     1.8134240000
   27      C      -4.2471670000    -2.5874870000    -2.4521490000
   28      H      -4.8042090000    -3.4833290000    -2.7725310000
   29      H      -3.9659910000    -1.9649720000    -3.3226970000
   30      H      -4.8596780000    -1.9629320000    -1.7745070000
   31      C       0.0000000000     0.0000000000     0.0000000000
   32      S       0.2050930000     0.7661960000     1.5805300000
   33      C       0.6289390000     2.3481140000     0.9049110000
   34      C       0.2581370000     0.9640280000    -0.9854000000
   35      C       0.5997450000     2.2393090000    -0.4935280000
   36      H       0.1971690000     0.7364040000    -2.0599340000
   37      H       0.8276780000     3.0902430000    -1.1525930000
   38      H       0.8567960000     3.1988080000     1.5560250000
   39      H       0.3185880000    -7.3615890000    -0.8515740000
   40      H      -0.5805220000    -7.3611920000     0.7041810000
   41      H       0.5404590000    -1.4788310000    -0.9350420000
 ----------------------------------------------------------------

   11   -1571.7449359041      5.59e-07  Convergence criterion met
 Total energy in the final basis set =    -1571.7449359041
        RIMP2         total energy =     -1576.4005565423 a.u.

                    Orbital Energies (a.u.)
 --------------------------------------------------------------

 Alpha MOs
 -- Occupied --
-91.9899 -20.5526 -20.5445 -20.5418 -20.5408 -15.6270 -15.6214 -11.3936
-11.3851 -11.3836 -11.3794 -11.3089 -11.3078 -11.3049 -11.3046 -11.2980
-11.2962 -11.2901 -11.2809 -11.2691 -11.2679 -11.2655 -11.2630 -11.2594
-11.2547 -11.2526 -11.2511  -8.9896  -6.6704  -6.6700  -6.6694  -1.4196
 -1.4123  -1.3973  -1.3915  -1.2622  -1.2555  -1.2302  -1.1872  -1.1524
 -1.1142  -1.0865  -1.0468  -0.9957  -0.9878  -0.9853  -0.9552  -0.9506
 -0.8967  -0.8879  -0.8766  -0.8597  -0.7956  -0.7779  -0.7708  -0.7612
 -0.7418  -0.7169  -0.7037  -0.6918  -0.6814  -0.6717  -0.6666  -0.6573
 -0.6470  -0.6441  -0.6365  -0.6327  -0.6308  -0.6277  -0.6222  -0.6045
 -0.5857  -0.5752  -0.5662  -0.5613  -0.5566  -0.5513  -0.5506  -0.5488
 -0.5477  -0.5436  -0.5185  -0.5163  -0.5095  -0.4840  -0.4757  -0.4646
 -0.4582  -0.4513  -0.4429  -0.4347  -0.4135  -0.4075  -0.3566  -0.3505
 -0.3293  -0.2865

          Ground-State Mulliken Net Atomic Charges

     Atom                 Charge (a.u.)
  ----------------------------------------
      1 C                    -0.084464
      2 C                    -0.031495
      3 C                    -0.111716
      4 C                    -0.123351
      5 H                     0.198669
      6 C                     0.019771
      7 C                     0.115236
      8 C                    -0.086491
      9 C                    -0.173339
     10 C                    -0.126230
     11 C                     0.176866
     12 H                     0.201423
     13 C                     0.343066
     14 C                     0.346343
     15 N                    -0.090047
     16 C                     0.357511
     17 C                     0.343175
     18 N                    -0.091428
     19 O                    -0.494227
     20 O                    -0.506402
     21 O                    -0.501503
     22 O                    -0.471524
     23 C                    -0.204739
     24 H                     0.139460
     25 H                     0.109398
     26 H                     0.108996
     27 C                    -0.197190
     28 H                     0.133320
     29 H                     0.110810
     30 H                     0.112259
     31 C                     0.008091
     32 S                     0.011251
     33 C                    -0.214388
     34 C                    -0.190693
     35 C                    -0.203411
     36 H                     0.183590
     37 H                     0.191844
     38 H                     0.210578
     39 H                     0.137379
     40 H                     0.137558
     41 H                     0.206043
  ----------------------------------------
  Sum of atomic charges =     0.000000

                    Cartesian Multipole Moments
 -----------------------------------------------------------------
    Charge (ESU x 10^10)
                 0.0000
    Dipole Moment (Debye)
         X       0.1886      Y       2.1217      Z      -2.1751
       Tot       3.0444
    Quadrupole Moments (Debye-Ang)
        XX    -186.9148     XY       9.5157     YY    -178.5521
        XZ     -14.2929     YZ       6.0374     ZZ    -164.5428

 Total job time:  314.40s(wall), 9064.71s(cpu)
        *  Thank you very much for using Q-Chem.  Have a nice day.  *
