 Q-Chem 5.4, Q-Chem, Inc., Pleasanton, CA (2021)
 Q-Chem 5.4.0 for Intel X86 EM64T Linux

User input:
--------------------------------------------------------------
$molecule
0 1
C	0.241938	-6.741404	0.086486
C	1.468983	-6.155638	0.532960
C	-0.776651	-5.791452	-0.284733
C	1.730681	-4.803786	0.628455
H	2.294130	-6.821518	0.833086
C	-0.502775	-4.378638	-0.184300
C	0.747353	-3.838032	0.271086
C	-1.484986	-3.413062	-0.541191
C	1.019042	-2.426473	0.370703
C	-1.226525	-2.059348	-0.446468
C	-0.000000	-1.478216	-0.000000
H	-2.052666	-1.394783	-0.746717
C	-2.131549	-6.187987	-0.779832
C	-2.829295	-3.798164	-1.030596
N	-3.057496	-5.170003	-1.115461
C	3.078712	-4.424987	1.119034
C	2.375300	-2.036627	0.865151
N	3.301374	-3.049156	1.201176
O	-2.498300	-7.353131	-0.916355
O	-3.697195	-2.986854	-1.345486
O	3.936224	-5.248946	1.430379
O	2.762805	-0.878829	1.007714
C	-4.384539	-5.563799	-1.599576
H	-4.426636	-6.664085	-1.616121
H	-4.550487	-5.147101	-2.611458
H	-5.162921	-5.148785	-0.931037
C	4.608454	-2.587487	1.677382
H	5.212668	-3.483329	1.896168
H	4.482719	-1.964972	2.583531
H	5.093988	-1.962932	0.903674
C	0.000000	0.000000	0.000000
S	-0.000201	0.793171	1.580530
C	-0.000228	2.430885	0.904911
C	-0.000168	0.997990	-0.985400
C	-0.000267	2.318231	-0.493528
H	-0.000145	0.762343	-2.059934
H	-0.000339	3.199164	-1.152593
H	-0.000311	3.311566	1.556025
H	-0.165874	-7.361589	0.893959
H	0.449423	-7.361192	-0.794290
H	-0.369880	-1.478831	1.014686
$end

$rem
JOBTYPE		SP
EXCHANGE	HF
CORRELATION	pRIMP2
BASIS		cc-pvtz
METHOD		rimp2
AUX_BASIS	rimp2-cc-pvtz
SOLVENT_METHOD	PCM
PURECART	11111
SYMMETRY	false
MEM_TOTAL	110000
SCF_CONVERGENCE = 6
THRESH=10
GUI = 2
$end

$solvent
dielectric 4.90
$end
--------------------------------------------------------------

             Standard Nuclear Orientation (Angstroms)
    I     Atom           X                Y                Z
 ----------------------------------------------------------------
    1      C       0.2419380000    -6.7414040000     0.0864860000
    2      C       1.4689830000    -6.1556380000     0.5329600000
    3      C      -0.7766510000    -5.7914520000    -0.2847330000
    4      C       1.7306810000    -4.8037860000     0.6284550000
    5      H       2.2941300000    -6.8215180000     0.8330860000
    6      C      -0.5027750000    -4.3786380000    -0.1843000000
    7      C       0.7473530000    -3.8380320000     0.2710860000
    8      C      -1.4849860000    -3.4130620000    -0.5411910000
    9      C       1.0190420000    -2.4264730000     0.3707030000
   10      C      -1.2265250000    -2.0593480000    -0.4464680000
   11      C       0.0000000000    -1.4782160000     0.0000000000
   12      H      -2.0526660000    -1.3947830000    -0.7467170000
   13      C      -2.1315490000    -6.1879870000    -0.7798320000
   14      C      -2.8292950000    -3.7981640000    -1.0305960000
   15      N      -3.0574960000    -5.1700030000    -1.1154610000
   16      C       3.0787120000    -4.4249870000     1.1190340000
   17      C       2.3753000000    -2.0366270000     0.8651510000
   18      N       3.3013740000    -3.0491560000     1.2011760000
   19      O      -2.4983000000    -7.3531310000    -0.9163550000
   20      O      -3.6971950000    -2.9868540000    -1.3454860000
   21      O       3.9362240000    -5.2489460000     1.4303790000
   22      O       2.7628050000    -0.8788290000     1.0077140000
   23      C      -4.3845390000    -5.5637990000    -1.5995760000
   24      H      -4.4266360000    -6.6640850000    -1.6161210000
   25      H      -4.5504870000    -5.1471010000    -2.6114580000
   26      H      -5.1629210000    -5.1487850000    -0.9310370000
   27      C       4.6084540000    -2.5874870000     1.6773820000
   28      H       5.2126680000    -3.4833290000     1.8961680000
   29      H       4.4827190000    -1.9649720000     2.5835310000
   30      H       5.0939880000    -1.9629320000     0.9036740000
   31      C       0.0000000000     0.0000000000     0.0000000000
   32      S      -0.0002010000     0.7931710000     1.5805300000
   33      C      -0.0002280000     2.4308850000     0.9049110000
   34      C      -0.0001680000     0.9979900000    -0.9854000000
   35      C      -0.0002670000     2.3182310000    -0.4935280000
   36      H      -0.0001450000     0.7623430000    -2.0599340000
   37      H      -0.0003390000     3.1991640000    -1.1525930000
   38      H      -0.0003110000     3.3115660000     1.5560250000
   39      H      -0.1658740000    -7.3615890000     0.8939590000
   40      H       0.4494230000    -7.3611920000    -0.7942900000
   41      H      -0.3698800000    -1.4788310000     1.0146860000
 ----------------------------------------------------------------

   11   -1571.7454631422      5.65e-07  Convergence criterion met
 Total energy in the final basis set =    -1571.7454631422
        RIMP2         total energy =     -1576.4000359483 a.u.

                    Orbital Energies (a.u.)
 --------------------------------------------------------------

 Alpha MOs
 -- Occupied --
-91.9899 -20.5512 -20.5442 -20.5421 -20.5408 -15.6265 -15.6215 -11.3927
-11.3849 -11.3839 -11.3794 -11.3087 -11.3086 -11.3050 -11.3048 -11.2964
-11.2951 -11.2896 -11.2817 -11.2696 -11.2680 -11.2649 -11.2625 -11.2596
-11.2533 -11.2529 -11.2499  -8.9896  -6.6704  -6.6699  -6.6693  -1.4190
 -1.4125  -1.3968  -1.3917  -1.2617  -1.2556  -1.2300  -1.1866  -1.1522
 -1.1142  -1.0867  -1.0467  -0.9956  -0.9878  -0.9838  -0.9550  -0.9510
 -0.8961  -0.8874  -0.8767  -0.8601  -0.7933  -0.7762  -0.7741  -0.7678
 -0.7361  -0.7172  -0.7040  -0.6913  -0.6783  -0.6705  -0.6676  -0.6572
 -0.6469  -0.6400  -0.6385  -0.6325  -0.6310  -0.6273  -0.6226  -0.6052
 -0.5846  -0.5751  -0.5665  -0.5613  -0.5574  -0.5512  -0.5505  -0.5480
 -0.5455  -0.5436  -0.5187  -0.5178  -0.5091  -0.4814  -0.4745  -0.4672
 -0.4570  -0.4508  -0.4429  -0.4348  -0.4131  -0.4076  -0.3540  -0.3514
 -0.3280  -0.2898

          Ground-State Mulliken Net Atomic Charges

     Atom                 Charge (a.u.)
  ----------------------------------------
      1 C                    -0.084531
      2 C                    -0.030668
      3 C                    -0.109858
      4 C                    -0.123136
      5 H                     0.198808
      6 C                     0.014522
      7 C                     0.120821
      8 C                    -0.095913
      9 C                    -0.182885
     10 C                    -0.116714
     11 C                     0.235239
     12 H                     0.193639
     13 C                     0.343326
     14 C                     0.351285
     15 N                    -0.090430
     16 C                     0.356839
     17 C                     0.357216
     18 N                    -0.091239
     19 O                    -0.493747
     20 O                    -0.507214
     21 O                    -0.501775
     22 O                    -0.468990
     23 C                    -0.204660
     24 H                     0.139465
     25 H                     0.109114
     26 H                     0.109257
     27 C                    -0.197208
     28 H                     0.132998
     29 H                     0.111474
     30 H                     0.111765
     31 C                    -0.067383
     32 S                     0.018225
     33 C                    -0.214043
     34 C                    -0.174117
     35 C                    -0.205560
     36 H                     0.190345
     37 H                     0.191017
     38 H                     0.211868
     39 H                     0.137758
     40 H                     0.137754
     41 H                     0.187335
  ----------------------------------------
  Sum of atomic charges =     0.000000

                    Cartesian Multipole Moments
 -----------------------------------------------------------------
    Charge (ESU x 10^10)
                 0.0000
    Dipole Moment (Debye)
         X       0.6285      Y       2.2126      Z       0.0878
       Tot       2.3019
    Quadrupole Moments (Debye-Ang)
        XX    -192.1120     XY      -7.5220     YY    -177.1824
        XZ     -10.4766     YZ      -3.3721     ZZ    -160.0059

 Total job time:  329.97s(wall), 10014.56s(cpu)
        *  Thank you very much for using Q-Chem.  Have a nice day.  *
