 Q-Chem 5.4, Q-Chem, Inc., Pleasanton, CA (2021)
 Q-Chem 5.4.0 for Intel X86 EM64T Linux

User input:
--------------------------------------------------------------
$molecule
0 1
C	0.223244	-6.741404	0.127184
C	1.354118	-6.155638	0.779949
C	-0.715408	-5.791452	-0.415271
C	1.595259	-4.803786	0.919437
H	2.114613	-6.821518	1.218801
C	-0.463133	-4.378638	-0.268806
C	0.688925	-3.838032	0.396744
C	-1.368449	-3.413062	-0.790835
C	0.939189	-2.426473	0.542026
C	-1.130363	-2.059348	-0.652669
C	-0.000000	-1.478216	-0.000000
H	-1.891815	-1.394783	-1.091814
C	-1.963749	-6.187987	-1.138124
C	-2.607351	-3.798164	-1.506241
N	-2.817348	-5.170003	-1.629443
C	2.837621	-4.424987	1.636646
C	2.188982	-2.036627	1.264474
N	3.042637	-3.049156	1.756205
O	-2.301222	-7.353131	-1.336258
O	-3.407386	-2.986854	-1.967056
O	3.628041	-5.248946	2.092167
O	2.545844	-0.878829	1.472160
C	-4.040164	-5.563799	-2.336642
H	-4.078749	-6.664085	-2.360245
H	-4.027880	-5.147101	-3.361968
H	-4.922811	-5.148785	-1.813424
C	4.247167	-2.587487	2.452149
H	4.804209	-3.483329	2.772531
H	3.965991	-1.964972	3.322697
H	4.859678	-1.962932	1.774507
C	0.000000	0.000000	0.000000
S	0.607475	0.509994	1.580530
C	1.862020	1.562717	0.904911
C	0.764397	0.641624	-0.985400
C	1.775697	1.490335	-0.493528
H	0.583895	0.490135	-2.059934
H	2.450484	2.056643	-1.152593
H	2.536607	2.128872	1.556025
H	-0.318588	-7.361589	0.851574
H	0.580522	-7.361192	-0.704181
H	-0.540459	-1.478831	0.935042
$end

$rem
JOBTYPE		SP
EXCHANGE	HF
CORRELATION	pRIMP2
BASIS		cc-pvtz
METHOD		rimp2
AUX_BASIS	rimp2-cc-pvtz
SOLVENT_METHOD	PCM
PURECART	11111
SYMMETRY	false
MEM_TOTAL	110000
SCF_CONVERGENCE = 6
THRESH=10
GUI = 2
$end

$solvent
dielectric 4.90
$end
--------------------------------------------------------------

             Standard Nuclear Orientation (Angstroms)
    I     Atom           X                Y                Z
 ----------------------------------------------------------------
    1      C       0.2232440000    -6.7414040000     0.1271840000
    2      C       1.3541180000    -6.1556380000     0.7799490000
    3      C      -0.7154080000    -5.7914520000    -0.4152710000
    4      C       1.5952590000    -4.8037860000     0.9194370000
    5      H       2.1146130000    -6.8215180000     1.2188010000
    6      C      -0.4631330000    -4.3786380000    -0.2688060000
    7      C       0.6889250000    -3.8380320000     0.3967440000
    8      C      -1.3684490000    -3.4130620000    -0.7908350000
    9      C       0.9391890000    -2.4264730000     0.5420260000
   10      C      -1.1303630000    -2.0593480000    -0.6526690000
   11      C       0.0000000000    -1.4782160000     0.0000000000
   12      H      -1.8918150000    -1.3947830000    -1.0918140000
   13      C      -1.9637490000    -6.1879870000    -1.1381240000
   14      C      -2.6073510000    -3.7981640000    -1.5062410000
   15      N      -2.8173480000    -5.1700030000    -1.6294430000
   16      C       2.8376210000    -4.4249870000     1.6366460000
   17      C       2.1889820000    -2.0366270000     1.2644740000
   18      N       3.0426370000    -3.0491560000     1.7562050000
   19      O      -2.3012220000    -7.3531310000    -1.3362580000
   20      O      -3.4073860000    -2.9868540000    -1.9670560000
   21      O       3.6280410000    -5.2489460000     2.0921670000
   22      O       2.5458440000    -0.8788290000     1.4721600000
   23      C      -4.0401640000    -5.5637990000    -2.3366420000
   24      H      -4.0787490000    -6.6640850000    -2.3602450000
   25      H      -4.0278800000    -5.1471010000    -3.3619680000
   26      H      -4.9228110000    -5.1487850000    -1.8134240000
   27      C       4.2471670000    -2.5874870000     2.4521490000
   28      H       4.8042090000    -3.4833290000     2.7725310000
   29      H       3.9659910000    -1.9649720000     3.3226970000
   30      H       4.8596780000    -1.9629320000     1.7745070000
   31      C       0.0000000000     0.0000000000     0.0000000000
   32      S       0.6074750000     0.5099940000     1.5805300000
   33      C       1.8620200000     1.5627170000     0.9049110000
   34      C       0.7643970000     0.6416240000    -0.9854000000
   35      C       1.7756970000     1.4903350000    -0.4935280000
   36      H       0.5838950000     0.4901350000    -2.0599340000
   37      H       2.4504840000     2.0566430000    -1.1525930000
   38      H       2.5366070000     2.1288720000     1.5560250000
   39      H      -0.3185880000    -7.3615890000     0.8515740000
   40      H       0.5805220000    -7.3611920000    -0.7041810000
   41      H      -0.5404590000    -1.4788310000     0.9350420000
 ----------------------------------------------------------------

   11   -1571.6608660025      6.98e-07  Convergence criterion met
 Total energy in the final basis set =    -1571.6608660025
        RIMP2         total energy =     -1576.3386362138 a.u.

                    Orbital Energies (a.u.)
 --------------------------------------------------------------

 Alpha MOs
 -- Occupied --
-91.9768 -20.5459 -20.5438 -20.5389 -20.5377 -15.6265 -15.6190 -11.3915
-11.3843 -11.3809 -11.3760 -11.3064 -11.3025 -11.3023 -11.3022 -11.2953
-11.2913 -11.2809 -11.2669 -11.2648 -11.2634 -11.2634 -11.2614 -11.2588
-11.2581 -11.2509 -11.2450  -8.9779  -6.6583  -6.6577  -6.6576  -1.4219
 -1.4097  -1.3983  -1.3889  -1.2624  -1.2532  -1.2274  -1.1857  -1.1493
 -1.1110  -1.0824  -1.0441  -0.9930  -0.9868  -0.9843  -0.9537  -0.9492
 -0.8938  -0.8825  -0.8756  -0.8582  -0.7857  -0.7758  -0.7730  -0.7682
 -0.7325  -0.7187  -0.7018  -0.6900  -0.6776  -0.6666  -0.6665  -0.6559
 -0.6475  -0.6421  -0.6355  -0.6300  -0.6293  -0.6272  -0.6232  -0.6014
 -0.5837  -0.5719  -0.5667  -0.5625  -0.5574  -0.5521  -0.5500  -0.5475
 -0.5462  -0.5423  -0.5142  -0.5091  -0.5009  -0.4801  -0.4669  -0.4617
 -0.4519  -0.4410  -0.4365  -0.4323  -0.4142  -0.4055  -0.3503  -0.3306
 -0.3212  -0.2834

          Ground-State Mulliken Net Atomic Charges

     Atom                 Charge (a.u.)
  ----------------------------------------
      1 C                    -0.084678
      2 C                    -0.032369
      3 C                    -0.118624
      4 C                    -0.117372
      5 H                     0.197959
      6 C                     0.013572
      7 C                     0.120331
      8 C                    -0.088098
      9 C                    -0.221131
     10 C                    -0.159235
     11 C                     0.219188
     12 H                     0.191751
     13 C                     0.341822
     14 C                     0.345106
     15 N                    -0.088960
     16 C                     0.354262
     17 C                     0.400381
     18 N                    -0.087425
     19 O                    -0.498294
     20 O                    -0.510223
     21 O                    -0.503029
     22 O                    -0.466635
     23 C                    -0.205426
     24 H                     0.138999
     25 H                     0.108450
     26 H                     0.108595
     27 C                    -0.197563
     28 H                     0.134220
     29 H                     0.110406
     30 H                     0.110321
     31 C                    -0.116103
     32 S                     0.000707
     33 C                    -0.097613
     34 C                    -0.106809
     35 C                    -0.248324
     36 H                     0.191648
     37 H                     0.185645
     38 H                     0.207841
     39 H                     0.136166
     40 H                     0.136299
     41 H                     0.194244
  ----------------------------------------
  Sum of atomic charges =     0.000000

                    Cartesian Multipole Moments
 -----------------------------------------------------------------
    Charge (ESU x 10^10)
                 0.0000
    Dipole Moment (Debye)
         X       3.6736      Y       2.4392      Z       0.7096
       Tot       4.4664
    Quadrupole Moments (Debye-Ang)
        XX    -179.8750     XY      -1.7331     YY    -189.3812
        XZ     -12.3407     YZ      -5.7276     ZZ    -164.0473

 Total job time:  338.22s(wall), 9321.24s(cpu)
        *  Thank you very much for using Q-Chem.  Have a nice day.  *
