 Q-Chem 5.4, Q-Chem, Inc., Pleasanton, CA (2021)
 Q-Chem 5.4.0 for Intel X86 EM64T Linux

User input:
--------------------------------------------------------------
$molecule
0 1
C	0.253280	-6.741404	0.043160
C	1.539213	-6.155638	0.269777
C	-0.814295	-5.791452	-0.145543
C	1.813519	-4.803786	0.318377
H	2.403941	-6.821518	0.422058
C	-0.527140	-4.378638	-0.094194
C	0.783072	-3.838032	0.137191
C	-1.556403	-3.413062	-0.275104
C	1.067932	-2.426473	0.188116
C	-1.285420	-2.059348	-0.226701
C	-0.000000	-1.478216	-0.000000
H	-2.151147	-1.394783	-0.378931
C	-2.234582	-6.187987	-0.397845
C	-2.965273	-3.798164	-0.523637
N	-3.204744	-5.170003	-0.567586
C	3.226257	-4.424987	0.567421
C	2.489446	-2.036627	0.439541
N	3.459801	-3.049156	0.609650
O	-2.619468	-7.353131	-0.468608
O	-3.874668	-2.986854	-0.683034
O	4.124806	-5.248946	0.725131
O	2.895819	-0.878829	0.512648
C	-4.595691	-5.563799	-0.813908
H	-4.640022	-6.664085	-0.822891
H	-4.934830	-5.147101	-1.781600
H	-5.246157	-5.148785	-0.020360
C	4.829716	-2.587487	0.851649
H	5.462742	-3.483329	0.962191
H	4.863242	-1.964972	1.765865
H	5.173521	-1.962932	0.005383
C	0.000000	0.000000	0.000000
S	0.607475	0.509994	1.580530
C	1.862020	1.562717	0.904911
C	0.764397	0.641624	-0.985400
C	1.775697	1.490335	-0.493528
H	0.583895	0.490135	-2.059934
H	2.450484	2.056643	-1.152593
H	2.536607	2.128872	1.556025
H	-0.008120	-7.361589	0.909181
H	0.304668	-7.361192	-0.860264
H	-0.188062	-1.478831	1.063500
$end

$rem
JOBTYPE		SP
EXCHANGE	HF
CORRELATION	pRIMP2
BASIS		cc-pvtz
METHOD		rimp2
AUX_BASIS	rimp2-cc-pvtz
SOLVENT_METHOD	PCM
PURECART	11111
SYMMETRY	false
MEM_TOTAL	110000
SCF_CONVERGENCE = 6
THRESH=10
GUI = 2
$end

$solvent
dielectric 4.90
$end
--------------------------------------------------------------

             Standard Nuclear Orientation (Angstroms)
    I     Atom           X                Y                Z
 ----------------------------------------------------------------
    1      C       0.2532800000    -6.7414040000     0.0431600000
    2      C       1.5392130000    -6.1556380000     0.2697770000
    3      C      -0.8142950000    -5.7914520000    -0.1455430000
    4      C       1.8135190000    -4.8037860000     0.3183770000
    5      H       2.4039410000    -6.8215180000     0.4220580000
    6      C      -0.5271400000    -4.3786380000    -0.0941940000
    7      C       0.7830720000    -3.8380320000     0.1371910000
    8      C      -1.5564030000    -3.4130620000    -0.2751040000
    9      C       1.0679320000    -2.4264730000     0.1881160000
   10      C      -1.2854200000    -2.0593480000    -0.2267010000
   11      C       0.0000000000    -1.4782160000     0.0000000000
   12      H      -2.1511470000    -1.3947830000    -0.3789310000
   13      C      -2.2345820000    -6.1879870000    -0.3978450000
   14      C      -2.9652730000    -3.7981640000    -0.5236370000
   15      N      -3.2047440000    -5.1700030000    -0.5675860000
   16      C       3.2262570000    -4.4249870000     0.5674210000
   17      C       2.4894460000    -2.0366270000     0.4395410000
   18      N       3.4598010000    -3.0491560000     0.6096500000
   19      O      -2.6194680000    -7.3531310000    -0.4686080000
   20      O      -3.8746680000    -2.9868540000    -0.6830340000
   21      O       4.1248060000    -5.2489460000     0.7251310000
   22      O       2.8958190000    -0.8788290000     0.5126480000
   23      C      -4.5956910000    -5.5637990000    -0.8139080000
   24      H      -4.6400220000    -6.6640850000    -0.8228910000
   25      H      -4.9348300000    -5.1471010000    -1.7816000000
   26      H      -5.2461570000    -5.1487850000    -0.0203600000
   27      C       4.8297160000    -2.5874870000     0.8516490000
   28      H       5.4627420000    -3.4833290000     0.9621910000
   29      H       4.8632420000    -1.9649720000     1.7658650000
   30      H       5.1735210000    -1.9629320000     0.0053830000
   31      C       0.0000000000     0.0000000000     0.0000000000
   32      S       0.6074750000     0.5099940000     1.5805300000
   33      C       1.8620200000     1.5627170000     0.9049110000
   34      C       0.7643970000     0.6416240000    -0.9854000000
   35      C       1.7756970000     1.4903350000    -0.4935280000
   36      H       0.5838950000     0.4901350000    -2.0599340000
   37      H       2.4504840000     2.0566430000    -1.1525930000
   38      H       2.5366070000     2.1288720000     1.5560250000
   39      H      -0.0081200000    -7.3615890000     0.9091810000
   40      H       0.3046680000    -7.3611920000    -0.8602640000
   41      H      -0.1880620000    -1.4788310000     1.0635000000
 ----------------------------------------------------------------

   11   -1571.6838580205      6.44e-07  Convergence criterion met
 Total energy in the final basis set =    -1571.6838580205
        RIMP2         total energy =     -1576.3548532945 a.u.

                    Orbital Energies (a.u.)
 --------------------------------------------------------------

 Alpha MOs
 -- Occupied --
-91.9826 -20.5454 -20.5431 -20.5383 -20.5370 -15.6250 -15.6184 -11.3889
-11.3836 -11.3803 -11.3753 -11.3050 -11.3017 -11.3011 -11.3007 -11.2957
-11.2942 -11.2799 -11.2663 -11.2661 -11.2638 -11.2638 -11.2627 -11.2577
-11.2573 -11.2503 -11.2444  -8.9834  -6.6641  -6.6634  -6.6631  -1.4175
 -1.4091  -1.3956  -1.3882  -1.2602  -1.2525  -1.2271  -1.1867  -1.1496
 -1.1100  -1.0821  -1.0430  -0.9930  -0.9865  -0.9859  -0.9530  -0.9493
 -0.8930  -0.8805  -0.8744  -0.8568  -0.7867  -0.7760  -0.7725  -0.7669
 -0.7354  -0.7163  -0.7023  -0.6894  -0.6740  -0.6664  -0.6655  -0.6551
 -0.6450  -0.6401  -0.6342  -0.6292  -0.6286  -0.6257  -0.6217  -0.6012
 -0.5819  -0.5736  -0.5668  -0.5604  -0.5539  -0.5496  -0.5485  -0.5476
 -0.5457  -0.5418  -0.5161  -0.5077  -0.4977  -0.4770  -0.4691  -0.4655
 -0.4515  -0.4405  -0.4337  -0.4315  -0.4133  -0.4051  -0.3499  -0.3472
 -0.3272  -0.2851

          Ground-State Mulliken Net Atomic Charges

     Atom                 Charge (a.u.)
  ----------------------------------------
      1 C                    -0.084097
      2 C                    -0.034332
      3 C                    -0.120558
      4 C                    -0.117415
      5 H                     0.197347
      6 C                     0.014850
      7 C                     0.113254
      8 C                    -0.083994
      9 C                    -0.173574
     10 C                    -0.162162
     11 C                     0.207472
     12 H                     0.191704
     13 C                     0.341182
     14 C                     0.346369
     15 N                    -0.089022
     16 C                     0.353850
     17 C                     0.370208
     18 N                    -0.086811
     19 O                    -0.498878
     20 O                    -0.510726
     21 O                    -0.503698
     22 O                    -0.468269
     23 C                    -0.205591
     24 H                     0.138923
     25 H                     0.108275
     26 H                     0.108453
     27 C                    -0.197607
     28 H                     0.133714
     29 H                     0.109747
     30 H                     0.109865
     31 C                    -0.113142
     32 S                    -0.005951
     33 C                    -0.114278
     34 C                    -0.126316
     35 C                    -0.191756
     36 H                     0.190162
     37 H                     0.184139
     38 H                     0.209282
     39 H                     0.135606
     40 H                     0.135735
     41 H                     0.188039
  ----------------------------------------
  Sum of atomic charges =     0.000000

                    Cartesian Multipole Moments
 -----------------------------------------------------------------
    Charge (ESU x 10^10)
                 0.0000
    Dipole Moment (Debye)
         X       3.9488      Y       3.1194      Z      -0.0453
       Tot       5.0325
    Quadrupole Moments (Debye-Ang)
        XX    -187.7504     XY      -2.9502     YY    -190.6929
        XZ      -4.4909     YZ      -2.2763     ZZ    -156.9765

 Total job time:  325.99s(wall), 9943.81s(cpu)
        *  Thank you very much for using Q-Chem.  Have a nice day.  *
