 Q-Chem 5.4, Q-Chem, Inc., Pleasanton, CA (2021)
 Q-Chem 5.4.0 for Intel X86 EM64T Linux

User input:
--------------------------------------------------------------
$molecule
0 1
C	0.089263	-6.741404	0.240927
C	0.535973	-6.155638	1.467886
C	-0.281103	-5.791452	-0.777972
C	0.631036	-4.803786	1.729742
H	0.836458	-6.821518	2.292903
C	-0.181995	-4.378638	-0.503614
C	0.272725	-3.838032	0.746756
C	-0.539954	-3.413062	-1.485437
C	0.371053	-2.426473	1.018915
C	-0.446381	-2.059348	-1.226557
C	0.000000	-1.478216	0.000000
H	-0.747410	-1.394783	-2.052413
C	-0.772747	-6.187987	-2.134128
C	-1.029154	-3.798164	-2.829820
N	-1.110828	-5.170003	-3.059182
C	1.121728	-4.424987	3.077731
C	0.864069	-2.036627	2.375694
N	1.201928	-3.049156	3.301101
O	-0.903908	-7.353131	-2.502830
O	-1.345809	-2.986854	-3.697078
O	1.434422	-5.248946	3.934752
O	1.003943	-0.878829	2.764177
C	-1.592981	-5.563799	-4.386939
H	-1.607367	-6.664085	-4.429822
H	-0.924504	-5.147101	-5.164489
H	-2.605446	-5.148785	-4.553486
C	1.677308	-2.587487	4.608481
H	1.898089	-3.483329	5.211969
H	0.902337	-1.964972	5.094624
H	2.582098	-1.962932	4.483092
C	0.000000	0.000000	0.000000
S	0.396411	0.687007	1.580530
C	1.215245	2.105322	0.904911
C	0.498850	0.864369	-0.985400
C	1.158885	2.007781	-0.493528
H	0.381046	0.660280	-2.059934
H	1.599289	2.770727	-1.152593
H	1.655514	2.868056	1.556025
H	-0.791434	-7.361589	0.447559
H	0.897345	-7.361192	-0.166282
H	-1.015049	-1.478831	0.368883
$end

$rem
JOBTYPE		SP
EXCHANGE	HF
CORRELATION	pRIMP2
BASIS		cc-pvtz
METHOD		rimp2
AUX_BASIS	rimp2-cc-pvtz
SOLVENT_METHOD	PCM
PURECART	11111
SYMMETRY	false
MEM_TOTAL	110000
SCF_CONVERGENCE = 6
THRESH=10
GUI = 2
$end

$solvent
dielectric 4.90
$end
--------------------------------------------------------------

             Standard Nuclear Orientation (Angstroms)
    I     Atom           X                Y                Z
 ----------------------------------------------------------------
    1      C       0.0892630000    -6.7414040000     0.2409270000
    2      C       0.5359730000    -6.1556380000     1.4678860000
    3      C      -0.2811030000    -5.7914520000    -0.7779720000
    4      C       0.6310360000    -4.8037860000     1.7297420000
    5      H       0.8364580000    -6.8215180000     2.2929030000
    6      C      -0.1819950000    -4.3786380000    -0.5036140000
    7      C       0.2727250000    -3.8380320000     0.7467560000
    8      C      -0.5399540000    -3.4130620000    -1.4854370000
    9      C       0.3710530000    -2.4264730000     1.0189150000
   10      C      -0.4463810000    -2.0593480000    -1.2265570000
   11      C       0.0000000000    -1.4782160000     0.0000000000
   12      H      -0.7474100000    -1.3947830000    -2.0524130000
   13      C      -0.7727470000    -6.1879870000    -2.1341280000
   14      C      -1.0291540000    -3.7981640000    -2.8298200000
   15      N      -1.1108280000    -5.1700030000    -3.0591820000
   16      C       1.1217280000    -4.4249870000     3.0777310000
   17      C       0.8640690000    -2.0366270000     2.3756940000
   18      N       1.2019280000    -3.0491560000     3.3011010000
   19      O      -0.9039080000    -7.3531310000    -2.5028300000
   20      O      -1.3458090000    -2.9868540000    -3.6970780000
   21      O       1.4344220000    -5.2489460000     3.9347520000
   22      O       1.0039430000    -0.8788290000     2.7641770000
   23      C      -1.5929810000    -5.5637990000    -4.3869390000
   24      H      -1.6073670000    -6.6640850000    -4.4298220000
   25      H      -0.9245040000    -5.1471010000    -5.1644890000
   26      H      -2.6054460000    -5.1487850000    -4.5534860000
   27      C       1.6773080000    -2.5874870000     4.6084810000
   28      H       1.8980890000    -3.4833290000     5.2119690000
   29      H       0.9023370000    -1.9649720000     5.0946240000
   30      H       2.5820980000    -1.9629320000     4.4830920000
   31      C       0.0000000000     0.0000000000     0.0000000000
   32      S       0.3964110000     0.6870070000     1.5805300000
   33      C       1.2152450000     2.1053220000     0.9049110000
   34      C       0.4988500000     0.8643690000    -0.9854000000
   35      C       1.1588850000     2.0077810000    -0.4935280000
   36      H       0.3810460000     0.6602800000    -2.0599340000
   37      H       1.5992890000     2.7707270000    -1.1525930000
   38      H       1.6555140000     2.8680560000     1.5560250000
   39      H      -0.7914340000    -7.3615890000     0.4475590000
   40      H       0.8973450000    -7.3611920000    -0.1662820000
   41      H      -1.0150490000    -1.4788310000     0.3688830000
 ----------------------------------------------------------------

   11   -1571.6406285633      6.60e-07  Convergence criterion met
 Total energy in the final basis set =    -1571.6406285633
        RIMP2         total energy =     -1576.3241587135 a.u.

                    Orbital Energies (a.u.)
 --------------------------------------------------------------

 Alpha MOs
 -- Occupied --
-91.9753 -20.5582 -20.5477 -20.5411 -20.5402 -15.6334 -15.6213 -11.4055
-11.3884 -11.3832 -11.3788 -11.3123 -11.3092 -11.3082 -11.3055 -11.2996
-11.2862 -11.2759 -11.2704 -11.2686 -11.2665 -11.2644 -11.2626 -11.2594
-11.2538 -11.2431 -11.2303  -8.9755  -6.6560  -6.6545  -6.6533  -1.4403
 -1.4120  -1.4054  -1.3911  -1.2710  -1.2556  -1.2303  -1.1840  -1.1442
 -1.1152  -1.0848  -1.0490  -0.9948  -0.9895  -0.9760  -0.9568  -0.9465
 -0.9002  -0.8897  -0.8801  -0.8631  -0.7902  -0.7836  -0.7768  -0.7587
 -0.7322  -0.7279  -0.7016  -0.6912  -0.6876  -0.6743  -0.6685  -0.6592
 -0.6524  -0.6440  -0.6380  -0.6326  -0.6322  -0.6316  -0.6246  -0.6058
 -0.5896  -0.5730  -0.5662  -0.5646  -0.5569  -0.5545  -0.5532  -0.5492
 -0.5479  -0.5455  -0.5224  -0.5145  -0.5112  -0.4881  -0.4726  -0.4633
 -0.4554  -0.4436  -0.4387  -0.4229  -0.4077  -0.3966  -0.3550  -0.3253
 -0.3001  -0.2743

          Ground-State Mulliken Net Atomic Charges

     Atom                 Charge (a.u.)
  ----------------------------------------
      1 C                    -0.084619
      2 C                    -0.026014
      3 C                    -0.113719
      4 C                    -0.123799
      5 H                     0.199816
      6 C                     0.022076
      7 C                     0.126521
      8 C                    -0.102057
      9 C                    -0.237087
     10 C                    -0.132081
     11 C                     0.199307
     12 H                     0.194869
     13 C                     0.342291
     14 C                     0.347633
     15 N                    -0.089737
     16 C                     0.358713
     17 C                     0.415238
     18 N                    -0.087811
     19 O                    -0.495945
     20 O                    -0.508540
     21 O                    -0.498176
     22 O                    -0.419559
     23 C                    -0.204957
     24 H                     0.139422
     25 H                     0.109271
     26 H                     0.109080
     27 C                    -0.199909
     28 H                     0.135643
     29 H                     0.113372
     30 H                     0.113586
     31 C                    -0.085209
     32 S                     0.086533
     33 C                    -0.235885
     34 C                    -0.165302
     35 C                    -0.259737
     36 H                     0.181073
     37 H                     0.179436
     38 H                     0.202456
     39 H                     0.138214
     40 H                     0.138502
     41 H                     0.217089
  ----------------------------------------
  Sum of atomic charges =     0.000000

                    Cartesian Multipole Moments
 -----------------------------------------------------------------
    Charge (ESU x 10^10)
                 0.0000
    Dipole Moment (Debye)
         X       0.8398      Y       0.1831      Z       2.3813
       Tot       2.5317
    Quadrupole Moments (Debye-Ang)
        XX    -163.9011     XY       1.0053     YY    -181.6200
        XZ      -8.1322     YZ     -10.4604     ZZ    -181.4138

 Total job time:  333.13s(wall), 9266.20s(cpu)
        *  Thank you very much for using Q-Chem.  Have a nice day.  *
