 Q-Chem 5.4, Q-Chem, Inc., Pleasanton, CA (2021)
 Q-Chem 5.4.0 for Intel X86 EM64T Linux

User input:
--------------------------------------------------------------
$molecule
0 1
C	0.240927	-6.741404	-0.089263
C	1.467886	-6.155638	-0.535973
C	-0.777972	-5.791452	0.281103
C	1.729742	-4.803786	-0.631036
H	2.292903	-6.821518	-0.836458
C	-0.503614	-4.378638	0.181995
C	0.746756	-3.838032	-0.272725
C	-1.485437	-3.413062	0.539954
C	1.018915	-2.426473	-0.371053
C	-1.226557	-2.059348	0.446381
C	0.000000	-1.478216	0.000000
H	-2.052413	-1.394783	0.747410
C	-2.134128	-6.187987	0.772747
C	-2.829820	-3.798164	1.029154
N	-3.059182	-5.170003	1.110828
C	3.077731	-4.424987	-1.121728
C	2.375694	-2.036627	-0.864069
N	3.301101	-3.049156	-1.201928
O	-2.502830	-7.353131	0.903908
O	-3.697078	-2.986854	1.345809
O	3.934752	-5.248946	-1.434422
O	2.764177	-0.878829	-1.003943
C	-4.386939	-5.563799	1.592981
H	-4.429822	-6.664085	1.607367
H	-5.164489	-5.147101	0.924504
H	-4.553486	-5.148785	2.605446
C	4.608481	-2.587487	-1.677308
H	5.211969	-3.483329	-1.898089
H	5.094624	-1.964972	-0.902337
H	4.483092	-1.962932	-2.582098
C	0.000000	0.000000	0.000000
S	0.509686	0.607733	1.580530
C	1.562368	1.862312	0.904911
C	0.641367	0.764613	-0.985400
C	1.489926	1.776040	-0.493528
H	0.489914	0.584081	-2.059934
H	2.056124	2.450920	-1.152593
H	2.128395	2.537007	1.556025
H	0.447559	-7.361589	0.791434
H	-0.166282	-7.361192	-0.897345
H	0.368883	-1.478831	1.015049
$end

$rem
JOBTYPE		SP
EXCHANGE	HF
CORRELATION	pRIMP2
BASIS		cc-pvtz
METHOD		rimp2
AUX_BASIS	rimp2-cc-pvtz
SOLVENT_METHOD	PCM
PURECART	11111
SYMMETRY	false
MEM_TOTAL	110000
SCF_CONVERGENCE = 6
THRESH=10
GUI = 2
$end

$solvent
dielectric 4.90
$end
--------------------------------------------------------------

             Standard Nuclear Orientation (Angstroms)
    I     Atom           X                Y                Z
 ----------------------------------------------------------------
    1      C       0.2409270000    -6.7414040000    -0.0892630000
    2      C       1.4678860000    -6.1556380000    -0.5359730000
    3      C      -0.7779720000    -5.7914520000     0.2811030000
    4      C       1.7297420000    -4.8037860000    -0.6310360000
    5      H       2.2929030000    -6.8215180000    -0.8364580000
    6      C      -0.5036140000    -4.3786380000     0.1819950000
    7      C       0.7467560000    -3.8380320000    -0.2727250000
    8      C      -1.4854370000    -3.4130620000     0.5399540000
    9      C       1.0189150000    -2.4264730000    -0.3710530000
   10      C      -1.2265570000    -2.0593480000     0.4463810000
   11      C       0.0000000000    -1.4782160000     0.0000000000
   12      H      -2.0524130000    -1.3947830000     0.7474100000
   13      C      -2.1341280000    -6.1879870000     0.7727470000
   14      C      -2.8298200000    -3.7981640000     1.0291540000
   15      N      -3.0591820000    -5.1700030000     1.1108280000
   16      C       3.0777310000    -4.4249870000    -1.1217280000
   17      C       2.3756940000    -2.0366270000    -0.8640690000
   18      N       3.3011010000    -3.0491560000    -1.2019280000
   19      O      -2.5028300000    -7.3531310000     0.9039080000
   20      O      -3.6970780000    -2.9868540000     1.3458090000
   21      O       3.9347520000    -5.2489460000    -1.4344220000
   22      O       2.7641770000    -0.8788290000    -1.0039430000
   23      C      -4.3869390000    -5.5637990000     1.5929810000
   24      H      -4.4298220000    -6.6640850000     1.6073670000
   25      H      -5.1644890000    -5.1471010000     0.9245040000
   26      H      -4.5534860000    -5.1487850000     2.6054460000
   27      C       4.6084810000    -2.5874870000    -1.6773080000
   28      H       5.2119690000    -3.4833290000    -1.8980890000
   29      H       5.0946240000    -1.9649720000    -0.9023370000
   30      H       4.4830920000    -1.9629320000    -2.5820980000
   31      C       0.0000000000     0.0000000000     0.0000000000
   32      S       0.5096860000     0.6077330000     1.5805300000
   33      C       1.5623680000     1.8623120000     0.9049110000
   34      C       0.6413670000     0.7646130000    -0.9854000000
   35      C       1.4899260000     1.7760400000    -0.4935280000
   36      H       0.4899140000     0.5840810000    -2.0599340000
   37      H       2.0561240000     2.4509200000    -1.1525930000
   38      H       2.1283950000     2.5370070000     1.5560250000
   39      H       0.4475590000    -7.3615890000     0.7914340000
   40      H      -0.1662820000    -7.3611920000    -0.8973450000
   41      H       0.3688830000    -1.4788310000     1.0150490000
 ----------------------------------------------------------------

   11   -1571.7079629934      5.90e-07  Convergence criterion met
 Total energy in the final basis set =    -1571.7079629934
        RIMP2         total energy =     -1576.3710887160 a.u.

                    Orbital Energies (a.u.)
 --------------------------------------------------------------

 Alpha MOs
 -- Occupied --
-91.9873 -20.5497 -20.5439 -20.5391 -20.5379 -15.6263 -15.6192 -11.3921
-11.3844 -11.3810 -11.3763 -11.3062 -11.3030 -11.3029 -11.3026 -11.2951
-11.2920 -11.2812 -11.2742 -11.2669 -11.2651 -11.2634 -11.2631 -11.2597
-11.2581 -11.2510 -11.2488  -8.9879  -6.6688  -6.6681  -6.6675  -1.4190
 -1.4099  -1.3967  -1.3890  -1.2614  -1.2533  -1.2282  -1.1875  -1.1510
 -1.1113  -1.0839  -1.0442  -0.9952  -0.9871  -0.9864  -0.9537  -0.9494
 -0.8939  -0.8830  -0.8753  -0.8580  -0.7898  -0.7742  -0.7735  -0.7677
 -0.7384  -0.7160  -0.7028  -0.6895  -0.6753  -0.6691  -0.6658  -0.6558
 -0.6456  -0.6415  -0.6362  -0.6300  -0.6293  -0.6257  -0.6218  -0.6029
 -0.5829  -0.5738  -0.5677  -0.5608  -0.5549  -0.5501  -0.5486  -0.5471
 -0.5462  -0.5428  -0.5214  -0.5109  -0.5031  -0.4787  -0.4713  -0.4672
 -0.4533  -0.4485  -0.4407  -0.4327  -0.4130  -0.4057  -0.3516  -0.3489
 -0.3300  -0.2834

          Ground-State Mulliken Net Atomic Charges

     Atom                 Charge (a.u.)
  ----------------------------------------
      1 C                    -0.084848
      2 C                    -0.031381
      3 C                    -0.119031
      4 C                    -0.120397
      5 H                     0.197850
      6 C                     0.009897
      7 C                     0.118023
      8 C                    -0.070202
      9 C                    -0.158117
     10 C                    -0.158787
     11 C                     0.196699
     12 H                     0.193337
     13 C                     0.342042
     14 C                     0.347316
     15 N                    -0.089097
     16 C                     0.356814
     17 C                     0.369628
     18 N                    -0.087925
     19 O                    -0.497899
     20 O                    -0.509866
     21 O                    -0.502560
     22 O                    -0.472582
     23 C                    -0.205359
     24 H                     0.138995
     25 H                     0.108656
     26 H                     0.108619
     27 C                    -0.197668
     28 H                     0.133691
     29 H                     0.111121
     30 H                     0.110197
     31 C                    -0.085971
     32 S                    -0.001189
     33 C                    -0.188369
     34 C                    -0.137492
     35 C                    -0.173291
     36 H                     0.186114
     37 H                     0.186518
     38 H                     0.213376
     39 H                     0.136195
     40 H                     0.136360
     41 H                     0.190585
  ----------------------------------------
  Sum of atomic charges =     0.000000

                    Cartesian Multipole Moments
 -----------------------------------------------------------------
    Charge (ESU x 10^10)
                 0.0000
    Dipole Moment (Debye)
         X       3.3509      Y       3.0399      Z      -1.0119
       Tot       4.6361
    Quadrupole Moments (Debye-Ang)
        XX    -187.4203     XY      -3.3530     YY    -186.2655
        XZ      11.3671     YZ       2.6992     ZZ    -160.0285

 Total job time:  310.69s(wall), 9037.29s(cpu)
        *  Thank you very much for using Q-Chem.  Have a nice day.  *
