 Q-Chem 5.4, Q-Chem, Inc., Pleasanton, CA (2021)
 Q-Chem 5.4.0 for Intel X86 EM64T Linux

User input:
--------------------------------------------------------------
$molecule
0 1
C	-0.046070	-6.741404	-0.252767
C	-0.272935	-6.155638	-1.538656
C	0.141739	-5.791452	0.814966
C	-0.321083	-4.803786	-1.813042
H	-0.425592	-6.821518	-2.403318
C	0.091779	-4.378638	0.527566
C	-0.138909	-3.838032	-0.782769
C	0.273808	-3.413062	1.556632
C	-0.188483	-2.426473	-1.067868
C	0.226610	-2.059348	1.285436
C	-0.000000	-1.478216	-0.000000
H	0.379657	-1.394783	2.151019
C	0.390420	-6.187987	2.235891
C	0.522125	-3.798164	2.965540
N	0.562731	-5.170003	3.205600
C	-0.570244	-4.424987	-3.225760
C	-0.438407	-2.036627	-2.489646
N	-0.610438	-3.049156	-3.459662
O	0.455563	-7.353131	2.621768
O	0.683373	-2.986854	3.874608
O	-0.729367	-5.248946	-4.124059
O	-0.508697	-0.878829	-2.896516
C	0.806996	-5.563799	4.596910
H	0.813717	-6.664085	4.641640
H	0.013655	-5.147101	5.246567
H	1.775159	-5.148785	4.936739
C	-0.851572	-2.587487	-4.829729
H	-0.964204	-3.483329	-5.462387
H	-0.003956	-1.964972	-5.173914
H	-1.764390	-1.962932	-4.863360
C	0.000000	0.000000	0.000000
S	-0.000201	0.793171	1.580530
C	-0.000228	2.430885	0.904911
C	-0.000168	0.997990	-0.985400
C	-0.000267	2.318231	-0.493528
H	-0.000145	0.762343	-2.059934
H	-0.000339	3.199164	-1.152593
H	-0.000311	3.311566	1.556025
H	0.857128	-7.361589	-0.303328
H	-0.912587	-7.361192	0.007933
H	1.063684	-1.478831	-0.187017
$end

$rem
JOBTYPE		SP
EXCHANGE	HF
CORRELATION	pRIMP2
BASIS		cc-pvtz
METHOD		rimp2
AUX_BASIS	rimp2-cc-pvtz
SOLVENT_METHOD	PCM
PURECART	11111
SYMMETRY	false
MEM_TOTAL	110000
SCF_CONVERGENCE = 6
THRESH=10
GUI = 2
$end

$solvent
dielectric 4.90
$end
--------------------------------------------------------------

             Standard Nuclear Orientation (Angstroms)
    I     Atom           X                Y                Z
 ----------------------------------------------------------------
    1      C      -0.0460700000    -6.7414040000    -0.2527670000
    2      C      -0.2729350000    -6.1556380000    -1.5386560000
    3      C       0.1417390000    -5.7914520000     0.8149660000
    4      C      -0.3210830000    -4.8037860000    -1.8130420000
    5      H      -0.4255920000    -6.8215180000    -2.4033180000
    6      C       0.0917790000    -4.3786380000     0.5275660000
    7      C      -0.1389090000    -3.8380320000    -0.7827690000
    8      C       0.2738080000    -3.4130620000     1.5566320000
    9      C      -0.1884830000    -2.4264730000    -1.0678680000
   10      C       0.2266100000    -2.0593480000     1.2854360000
   11      C       0.0000000000    -1.4782160000     0.0000000000
   12      H       0.3796570000    -1.3947830000     2.1510190000
   13      C       0.3904200000    -6.1879870000     2.2358910000
   14      C       0.5221250000    -3.7981640000     2.9655400000
   15      N       0.5627310000    -5.1700030000     3.2056000000
   16      C      -0.5702440000    -4.4249870000    -3.2257600000
   17      C      -0.4384070000    -2.0366270000    -2.4896460000
   18      N      -0.6104380000    -3.0491560000    -3.4596620000
   19      O       0.4555630000    -7.3531310000     2.6217680000
   20      O       0.6833730000    -2.9868540000     3.8746080000
   21      O      -0.7293670000    -5.2489460000    -4.1240590000
   22      O      -0.5086970000    -0.8788290000    -2.8965160000
   23      C       0.8069960000    -5.5637990000     4.5969100000
   24      H       0.8137170000    -6.6640850000     4.6416400000
   25      H       0.0136550000    -5.1471010000     5.2465670000
   26      H       1.7751590000    -5.1487850000     4.9367390000
   27      C      -0.8515720000    -2.5874870000    -4.8297290000
   28      H      -0.9642040000    -3.4833290000    -5.4623870000
   29      H      -0.0039560000    -1.9649720000    -5.1739140000
   30      H      -1.7643900000    -1.9629320000    -4.8633600000
   31      C       0.0000000000     0.0000000000     0.0000000000
   32      S      -0.0002010000     0.7931710000     1.5805300000
   33      C      -0.0002280000     2.4308850000     0.9049110000
   34      C      -0.0001680000     0.9979900000    -0.9854000000
   35      C      -0.0002670000     2.3182310000    -0.4935280000
   36      H      -0.0001450000     0.7623430000    -2.0599340000
   37      H      -0.0003390000     3.1991640000    -1.1525930000
   38      H      -0.0003110000     3.3115660000     1.5560250000
   39      H       0.8571280000    -7.3615890000    -0.3033280000
   40      H      -0.9125870000    -7.3611920000     0.0079330000
   41      H       1.0636840000    -1.4788310000    -0.1870170000
 ----------------------------------------------------------------

   11   -1571.7346604887      5.93e-07  Convergence criterion met
 Total energy in the final basis set =    -1571.7346604887
        RIMP2         total energy =     -1576.3932487833 a.u.

                    Orbital Energies (a.u.)
 --------------------------------------------------------------

 Alpha MOs
 -- Occupied --
-91.9897 -20.5539 -20.5460 -20.5426 -20.5417 -15.6293 -15.6221 -11.3978
-11.3867 -11.3844 -11.3803 -11.3105 -11.3102 -11.3071 -11.3057 -11.2984
-11.2980 -11.2928 -11.2740 -11.2708 -11.2694 -11.2677 -11.2644 -11.2597
-11.2538 -11.2464 -11.2365  -8.9897  -6.6705  -6.6700  -6.6694  -1.4238
 -1.4131  -1.4001  -1.3922  -1.2648  -1.2564  -1.2322  -1.1876  -1.1503
 -1.1158  -1.0878  -1.0491  -0.9956  -0.9889  -0.9817  -0.9561  -0.9497
 -0.8985  -0.8913  -0.8786  -0.8619  -0.7957  -0.7812  -0.7731  -0.7583
 -0.7399  -0.7201  -0.7024  -0.6899  -0.6837  -0.6740  -0.6688  -0.6584
 -0.6495  -0.6471  -0.6388  -0.6325  -0.6319  -0.6298  -0.6244  -0.6055
 -0.5928  -0.5716  -0.5638  -0.5606  -0.5579  -0.5526  -0.5516  -0.5495
 -0.5485  -0.5430  -0.5167  -0.5151  -0.5128  -0.4864  -0.4747  -0.4600
 -0.4582  -0.4503  -0.4434  -0.4367  -0.4160  -0.4085  -0.3574  -0.3497
 -0.3318  -0.2783

          Ground-State Mulliken Net Atomic Charges

     Atom                 Charge (a.u.)
  ----------------------------------------
      1 C                    -0.084354
      2 C                    -0.030773
      3 C                    -0.104716
      4 C                    -0.123352
      5 H                     0.199286
      6 C                     0.022217
      7 C                     0.111559
      8 C                    -0.051779
      9 C                    -0.198757
     10 C                    -0.157895
     11 C                     0.197179
     12 H                     0.178499
     13 C                     0.342330
     14 C                     0.351174
     15 N                    -0.090096
     16 C                     0.358883
     17 C                     0.387679
     18 N                    -0.087642
     19 O                    -0.493249
     20 O                    -0.506257
     21 O                    -0.500481
     22 O                    -0.481511
     23 C                    -0.204705
     24 H                     0.139612
     25 H                     0.109771
     26 H                     0.109387
     27 C                    -0.198482
     28 H                     0.134413
     29 H                     0.111497
     30 H                     0.112522
     31 C                    -0.045303
     32 S                    -0.006472
     33 C                    -0.230249
     34 C                    -0.149715
     35 C                    -0.238483
     36 H                     0.219741
     37 H                     0.189085
     38 H                     0.214459
     39 H                     0.138287
     40 H                     0.138563
     41 H                     0.218123
  ----------------------------------------
  Sum of atomic charges =     0.000000

                    Cartesian Multipole Moments
 -----------------------------------------------------------------
    Charge (ESU x 10^10)
                -0.0000
    Dipole Moment (Debye)
         X       0.6880      Y       1.3836      Z      -2.3902
       Tot       2.8462
    Quadrupole Moments (Debye-Ang)
        XX    -163.4927     XY       0.0905     YY    -175.9726
        XZ      -5.5557     YZ       9.3551     ZZ    -187.6303

 Total job time:  333.53s(wall), 9773.79s(cpu)
        *  Thank you very much for using Q-Chem.  Have a nice day.  *
