 Q-Chem 5.4, Q-Chem, Inc., Pleasanton, CA (2021)
 Q-Chem 5.4.0 for Intel X86 EM64T Linux

User input:
--------------------------------------------------------------
$molecule
0 1
C	1.169177	-6.639243	-0.256927
C	1.067337	-6.062399	-1.562675
C	1.003773	-5.703803	0.827197
C	0.832816	-4.731044	-1.841253
H	1.182777	-6.718195	-2.440709
C	0.759135	-4.312330	0.535488
C	0.665608	-3.779876	-0.794999
C	0.592024	-3.361324	1.580529
C	0.421169	-2.389641	-1.084374
C	0.357557	-2.028070	1.305258
C	0.256690	-1.455759	0.000000
H	0.242565	-1.373530	2.184267
C	1.070820	-6.094632	2.269719
C	0.658788	-3.740595	3.011152
N	0.895334	-5.091887	3.254617
C	0.766979	-4.358010	-3.275775
C	0.354224	-2.005586	-2.527951
N	0.529086	-3.002902	-3.513104
O	1.270336	-7.242571	2.661046
O	0.518831	-2.941447	3.934410
O	0.909352	-5.169576	-4.188059
O	0.154583	-0.865129	-2.940845
C	0.962688	-5.479882	4.667206
H	1.152619	-6.563651	4.712423
H	0.009812	-5.224773	5.169231
H	1.771476	-4.915854	5.169992
C	0.449351	-2.548170	-4.904229
H	0.603867	-3.430587	-5.546833
H	1.222168	-1.779783	-5.095998
H	-0.538644	-2.088191	-5.095858
C	0.000000	0.000000	0.000000
S	0.396411	0.687007	1.580530
C	1.215245	2.105322	0.904911
C	0.498850	0.864369	-0.985400
C	1.158885	2.007781	-0.493528
H	0.381046	0.660280	-2.059934
H	1.599289	2.770727	-1.152593
H	1.655514	2.868056	1.556025
H	2.161481	-7.094026	-0.149881
H	0.391832	-7.405660	-0.150656
H	1.320388	-1.268824	0.000531
$end

$rem
JOBTYPE		SP
EXCHANGE	HF
CORRELATION	pRIMP2
BASIS		cc-pvtz
METHOD		rimp2
AUX_BASIS	rimp2-cc-pvtz
SOLVENT_METHOD	PCM
PURECART	11111
SYMMETRY	false
MEM_TOTAL	110000
SCF_CONVERGENCE = 6
THRESH=10
GUI = 2
$end

$solvent
dielectric 4.90
$end
--------------------------------------------------------------

             Standard Nuclear Orientation (Angstroms)
    I     Atom           X                Y                Z
 ----------------------------------------------------------------
    1      C       1.1691770000    -6.6392430000    -0.2569270000
    2      C       1.0673370000    -6.0623990000    -1.5626750000
    3      C       1.0037730000    -5.7038030000     0.8271970000
    4      C       0.8328160000    -4.7310440000    -1.8412530000
    5      H       1.1827770000    -6.7181950000    -2.4407090000
    6      C       0.7591350000    -4.3123300000     0.5354880000
    7      C       0.6656080000    -3.7798760000    -0.7949990000
    8      C       0.5920240000    -3.3613240000     1.5805290000
    9      C       0.4211690000    -2.3896410000    -1.0843740000
   10      C       0.3575570000    -2.0280700000     1.3052580000
   11      C       0.2566900000    -1.4557590000     0.0000000000
   12      H       0.2425650000    -1.3735300000     2.1842670000
   13      C       1.0708200000    -6.0946320000     2.2697190000
   14      C       0.6587880000    -3.7405950000     3.0111520000
   15      N       0.8953340000    -5.0918870000     3.2546170000
   16      C       0.7669790000    -4.3580100000    -3.2757750000
   17      C       0.3542240000    -2.0055860000    -2.5279510000
   18      N       0.5290860000    -3.0029020000    -3.5131040000
   19      O       1.2703360000    -7.2425710000     2.6610460000
   20      O       0.5188310000    -2.9414470000     3.9344100000
   21      O       0.9093520000    -5.1695760000    -4.1880590000
   22      O       0.1545830000    -0.8651290000    -2.9408450000
   23      C       0.9626880000    -5.4798820000     4.6672060000
   24      H       1.1526190000    -6.5636510000     4.7124230000
   25      H       0.0098120000    -5.2247730000     5.1692310000
   26      H       1.7714760000    -4.9158540000     5.1699920000
   27      C       0.4493510000    -2.5481700000    -4.9042290000
   28      H       0.6038670000    -3.4305870000    -5.5468330000
   29      H       1.2221680000    -1.7797830000    -5.0959980000
   30      H      -0.5386440000    -2.0881910000    -5.0958580000
   31      C       0.0000000000     0.0000000000     0.0000000000
   32      S       0.3964110000     0.6870070000     1.5805300000
   33      C       1.2152450000     2.1053220000     0.9049110000
   34      C       0.4988500000     0.8643690000    -0.9854000000
   35      C       1.1588850000     2.0077810000    -0.4935280000
   36      H       0.3810460000     0.6602800000    -2.0599340000
   37      H       1.5992890000     2.7707270000    -1.1525930000
   38      H       1.6555140000     2.8680560000     1.5560250000
   39      H       2.1614810000    -7.0940260000    -0.1498810000
   40      H       0.3918320000    -7.4056600000    -0.1506560000
   41      H       1.3203880000    -1.2688240000     0.0005310000
 ----------------------------------------------------------------

   11   -1571.6961674034      5.54e-07  Convergence criterion met
 Total energy in the final basis set =    -1571.6961674034
        RIMP2         total energy =     -1576.3636542782 a.u.

                    Orbital Energies (a.u.)
 --------------------------------------------------------------

 Alpha MOs
 -- Occupied --
-91.9869 -20.5540 -20.5458 -20.5411 -20.5401 -15.6295 -15.6208 -11.3986
-11.3865 -11.3830 -11.3784 -11.3087 -11.3051 -11.3047 -11.3041 -11.2971
-11.2892 -11.2869 -11.2848 -11.2686 -11.2685 -11.2646 -11.2642 -11.2590
-11.2528 -11.2472 -11.2402  -8.9879  -6.6687  -6.6680  -6.6675  -1.4252
 -1.4117  -1.4006  -1.3908  -1.2651  -1.2551  -1.2323  -1.1906  -1.1499
 -1.1139  -1.0856  -1.0479  -0.9968  -0.9885  -0.9862  -0.9554  -0.9478
 -0.8974  -0.8894  -0.8775  -0.8604  -0.7943  -0.7816  -0.7726  -0.7599
 -0.7389  -0.7238  -0.7011  -0.6899  -0.6838  -0.6738  -0.6681  -0.6577
 -0.6491  -0.6479  -0.6373  -0.6315  -0.6309  -0.6299  -0.6239  -0.6046
 -0.5935  -0.5711  -0.5669  -0.5624  -0.5581  -0.5524  -0.5513  -0.5484
 -0.5475  -0.5423  -0.5176  -0.5135  -0.5050  -0.4821  -0.4731  -0.4582
 -0.4566  -0.4484  -0.4419  -0.4354  -0.4162  -0.4076  -0.3593  -0.3468
 -0.3331  -0.2757

          Ground-State Mulliken Net Atomic Charges

     Atom                 Charge (a.u.)
  ----------------------------------------
      1 C                    -0.083862
      2 C                    -0.032711
      3 C                    -0.108322
      4 C                    -0.118083
      5 H                     0.198711
      6 C                     0.021472
      7 C                     0.120653
      8 C                    -0.045403
      9 C                    -0.217645
     10 C                    -0.161297
     11 C                     0.181045
     12 H                     0.187634
     13 C                     0.341237
     14 C                     0.343249
     15 N                    -0.089671
     16 C                     0.357614
     17 C                     0.385806
     18 N                    -0.088171
     19 O                    -0.495361
     20 O                    -0.508155
     21 O                    -0.500248
     22 O                    -0.480629
     23 C                    -0.205168
     24 H                     0.139332
     25 H                     0.109332
     26 H                     0.109082
     27 C                    -0.198902
     28 H                     0.134538
     29 H                     0.111431
     30 H                     0.112482
     31 C                    -0.005115
     32 S                    -0.003646
     33 C                    -0.211095
     34 C                    -0.203393
     35 C                    -0.225432
     36 H                     0.234443
     37 H                     0.191693
     38 H                     0.214597
     39 H                     0.137623
     40 H                     0.137906
     41 H                     0.212427
  ----------------------------------------
  Sum of atomic charges =     0.000000

                    Cartesian Multipole Moments
 -----------------------------------------------------------------
    Charge (ESU x 10^10)
                 0.0000
    Dipole Moment (Debye)
         X       1.9333      Y       2.0941      Z      -2.4192
       Tot       3.7384
    Quadrupole Moments (Debye-Ang)
        XX    -160.0812     XY       7.9656     YY    -180.0554
        XZ      -1.5272     YZ       9.9062     ZZ    -188.5411

 Total job time:  334.09s(wall), 10722.56s(cpu)
        *  Thank you very much for using Q-Chem.  Have a nice day.  *
