 Q-Chem 5.4, Q-Chem, Inc., Pleasanton, CA (2021)
 Q-Chem 5.4.0 for Intel X86 EM64T Linux

User input:
--------------------------------------------------------------
$molecule
0 1
C	-0.086486	-6.741404	0.241938
C	-0.532960	-6.155638	1.468983
C	0.284733	-5.791452	-0.776651
C	-0.628455	-4.803786	1.730681
H	-0.833086	-6.821518	2.294130
C	0.184300	-4.378638	-0.502775
C	-0.271086	-3.838032	0.747353
C	0.541191	-3.413062	-1.484986
C	-0.370703	-2.426473	1.019042
C	0.446468	-2.059348	-1.226525
C	0.000000	-1.478216	0.000000
H	0.746717	-1.394783	-2.052666
C	0.779832	-6.187987	-2.131549
C	1.030596	-3.798164	-2.829295
N	1.115461	-5.170003	-3.057496
C	-1.119034	-4.424987	3.078712
C	-0.865151	-2.036627	2.375300
N	-1.201176	-3.049156	3.301374
O	0.916355	-7.353131	-2.498300
O	1.345486	-2.986854	-3.697195
O	-1.430379	-5.248946	3.936224
O	-1.007714	-0.878829	2.762805
C	1.599576	-5.563799	-4.384539
H	1.616121	-6.664085	-4.426636
H	2.611458	-5.147101	-4.550487
H	0.931037	-5.148785	-5.162921
C	-1.677382	-2.587487	4.608454
H	-1.896168	-3.483329	5.212668
H	-2.583531	-1.964972	4.482719
H	-0.903674	-1.962932	5.093988
C	0.000000	0.000000	0.000000
S	0.205093	0.766196	1.580530
C	0.628939	2.348114	0.904911
C	0.258137	0.964028	-0.985400
C	0.599745	2.239309	-0.493528
H	0.197169	0.736404	-2.059934
H	0.827678	3.090243	-1.152593
H	0.856796	3.198808	1.556025
H	-0.893959	-7.361589	-0.165874
H	0.794290	-7.361192	0.449423
H	-1.014686	-1.478831	-0.369880
$end

$rem
JOBTYPE		SP
EXCHANGE	HF
CORRELATION	pRIMP2
BASIS		cc-pvtz
METHOD		rimp2
AUX_BASIS	rimp2-cc-pvtz
SOLVENT_METHOD	PCM
PURECART	11111
SYMMETRY	false
MEM_TOTAL	110000
SCF_CONVERGENCE = 6
THRESH=10
GUI = 2
$end

$solvent
dielectric 4.90
$end
--------------------------------------------------------------

             Standard Nuclear Orientation (Angstroms)
    I     Atom           X                Y                Z
 ----------------------------------------------------------------
    1      C      -0.0864860000    -6.7414040000     0.2419380000
    2      C      -0.5329600000    -6.1556380000     1.4689830000
    3      C       0.2847330000    -5.7914520000    -0.7766510000
    4      C      -0.6284550000    -4.8037860000     1.7306810000
    5      H      -0.8330860000    -6.8215180000     2.2941300000
    6      C       0.1843000000    -4.3786380000    -0.5027750000
    7      C      -0.2710860000    -3.8380320000     0.7473530000
    8      C       0.5411910000    -3.4130620000    -1.4849860000
    9      C      -0.3707030000    -2.4264730000     1.0190420000
   10      C       0.4464680000    -2.0593480000    -1.2265250000
   11      C       0.0000000000    -1.4782160000     0.0000000000
   12      H       0.7467170000    -1.3947830000    -2.0526660000
   13      C       0.7798320000    -6.1879870000    -2.1315490000
   14      C       1.0305960000    -3.7981640000    -2.8292950000
   15      N       1.1154610000    -5.1700030000    -3.0574960000
   16      C      -1.1190340000    -4.4249870000     3.0787120000
   17      C      -0.8651510000    -2.0366270000     2.3753000000
   18      N      -1.2011760000    -3.0491560000     3.3013740000
   19      O       0.9163550000    -7.3531310000    -2.4983000000
   20      O       1.3454860000    -2.9868540000    -3.6971950000
   21      O      -1.4303790000    -5.2489460000     3.9362240000
   22      O      -1.0077140000    -0.8788290000     2.7628050000
   23      C       1.5995760000    -5.5637990000    -4.3845390000
   24      H       1.6161210000    -6.6640850000    -4.4266360000
   25      H       2.6114580000    -5.1471010000    -4.5504870000
   26      H       0.9310370000    -5.1487850000    -5.1629210000
   27      C      -1.6773820000    -2.5874870000     4.6084540000
   28      H      -1.8961680000    -3.4833290000     5.2126680000
   29      H      -2.5835310000    -1.9649720000     4.4827190000
   30      H      -0.9036740000    -1.9629320000     5.0939880000
   31      C       0.0000000000     0.0000000000     0.0000000000
   32      S       0.2050930000     0.7661960000     1.5805300000
   33      C       0.6289390000     2.3481140000     0.9049110000
   34      C       0.2581370000     0.9640280000    -0.9854000000
   35      C       0.5997450000     2.2393090000    -0.4935280000
   36      H       0.1971690000     0.7364040000    -2.0599340000
   37      H       0.8276780000     3.0902430000    -1.1525930000
   38      H       0.8567960000     3.1988080000     1.5560250000
   39      H      -0.8939590000    -7.3615890000    -0.1658740000
   40      H       0.7942900000    -7.3611920000     0.4494230000
   41      H      -1.0146860000    -1.4788310000    -0.3698800000
 ----------------------------------------------------------------

   11   -1571.7150743586      5.94e-07  Convergence criterion met
 Total energy in the final basis set =    -1571.7150743586
        RIMP2         total energy =     -1576.3804113239 a.u.

                    Orbital Energies (a.u.)
 --------------------------------------------------------------

 Alpha MOs
 -- Occupied --
-91.9744 -20.5550 -20.5461 -20.5424 -20.5414 -15.6297 -15.6221 -11.3983
-11.3869 -11.3843 -11.3800 -11.3119 -11.3099 -11.3084 -11.3059 -11.2987
-11.2950 -11.2913 -11.2704 -11.2698 -11.2662 -11.2643 -11.2636 -11.2599
-11.2540 -11.2492 -11.2410  -8.9742  -6.6547  -6.6538  -6.6531  -1.4271
 -1.4130  -1.4015  -1.3921  -1.2658  -1.2564  -1.2314  -1.1858  -1.1478
 -1.1157  -1.0868  -1.0489  -0.9943  -0.9891  -0.9771  -0.9562  -0.9488
 -0.8978  -0.8907  -0.8791  -0.8623  -0.7925  -0.7803  -0.7741  -0.7591
 -0.7330  -0.7212  -0.7022  -0.6906  -0.6857  -0.6764  -0.6684  -0.6587
 -0.6501  -0.6467  -0.6374  -0.6331  -0.6323  -0.6320  -0.6222  -0.6061
 -0.5885  -0.5733  -0.5653  -0.5618  -0.5585  -0.5536  -0.5524  -0.5494
 -0.5485  -0.5452  -0.5211  -0.5125  -0.5116  -0.4861  -0.4778  -0.4630
 -0.4559  -0.4448  -0.4375  -0.4237  -0.4086  -0.4060  -0.3551  -0.3403
 -0.3282  -0.2781

          Ground-State Mulliken Net Atomic Charges

     Atom                 Charge (a.u.)
  ----------------------------------------
      1 C                    -0.084271
      2 C                    -0.029381
      3 C                    -0.106745
      4 C                    -0.123924
      5 H                     0.199884
      6 C                     0.025588
      7 C                     0.129143
      8 C                    -0.093250
      9 C                    -0.171438
     10 C                    -0.159148
     11 C                     0.215510
     12 H                     0.190434
     13 C                     0.341365
     14 C                     0.349810
     15 N                    -0.090294
     16 C                     0.357847
     17 C                     0.375411
     18 N                    -0.090362
     19 O                    -0.493986
     20 O                    -0.507972
     21 O                    -0.500017
     22 O                    -0.468041
     23 C                    -0.204831
     24 H                     0.139645
     25 H                     0.109544
     26 H                     0.109224
     27 C                    -0.197956
     28 H                     0.134439
     29 H                     0.112149
     30 H                     0.112974
     31 C                    -0.024174
     32 S                     0.077960
     33 C                    -0.254150
     34 C                    -0.226724
     35 C                    -0.212689
     36 H                     0.178699
     37 H                     0.184480
     38 H                     0.204309
     39 H                     0.138314
     40 H                     0.138867
     41 H                     0.213758
  ----------------------------------------
  Sum of atomic charges =     0.000000

                    Cartesian Multipole Moments
 -----------------------------------------------------------------
    Charge (ESU x 10^10)
                 0.0000
    Dipole Moment (Debye)
         X      -1.1801      Y       0.7758      Z       0.4532
       Tot       1.4832
    Quadrupole Moments (Debye-Ang)
        XX    -165.6837     XY       6.7484     YY    -178.2150
        XZ       9.9597     YZ      -8.0902     ZZ    -183.7643

 Total job time:  299.59s(wall), 9121.42s(cpu)
        *  Thank you very much for using Q-Chem.  Have a nice day.  *
