 Q-Chem 5.4, Q-Chem, Inc., Pleasanton, CA (2021)
 Q-Chem 5.4.0 for Intel X86 EM64T Linux

User input:
--------------------------------------------------------------
$molecule
0 1
C	0.001478	-6.741404	0.256927
C	0.001603	-6.155638	1.562675
C	0.001931	-5.791452	-0.827197
C	0.001374	-4.803786	1.841253
H	0.001794	-6.821518	2.440709
C	0.001227	-4.378638	-0.535488
C	0.000872	-3.838032	0.794999
C	0.000658	-3.413062	-1.580529
C	0.000186	-2.426473	1.084374
C	0.000046	-2.059348	-1.305258
C	-0.000000	-1.478216	-0.000000
H	-0.000369	-1.394783	-2.184267
C	0.003770	-6.187987	-2.269719
C	0.000767	-3.798164	-3.011152
N	0.002465	-5.170003	-3.254617
C	0.001433	-4.424987	3.275775
C	-0.000576	-2.036627	2.527951
N	0.000400	-3.049156	3.513104
O	0.006623	-7.353131	-2.661046
O	-0.000172	-2.986854	-3.934410
O	0.002151	-5.248946	4.188059
O	-0.002006	-0.878829	2.940845
C	0.003509	-5.563799	-4.667206
H	0.004658	-6.664085	-4.712423
H	0.897610	-5.147101	-5.169231
H	-0.890935	-5.148785	-5.169992
C	-0.000039	-2.587487	4.904229
H	0.001022	-3.483329	5.546833
H	-0.894545	-1.964972	5.095998
H	0.893071	-1.962932	5.095858
C	0.000000	0.000000	0.000000
S	-0.000201	0.793171	1.580530
C	-0.000228	2.430885	0.904911
C	-0.000168	0.997990	-0.985400
C	-0.000267	2.318231	-0.493528
H	-0.000145	0.762343	-2.059934
H	-0.000339	3.199164	-1.152593
H	-0.000311	3.311566	1.556025
H	-0.896779	-7.361589	0.149881
H	0.900100	-7.361192	0.150656
H	-1.080000	-1.478831	-0.000531
$end

$rem
JOBTYPE		SP
EXCHANGE	HF
CORRELATION	pRIMP2
BASIS		cc-pvtz
METHOD		rimp2
AUX_BASIS	rimp2-cc-pvtz
SOLVENT_METHOD	PCM
PURECART	11111
SYMMETRY	false
MEM_TOTAL	110000
SCF_CONVERGENCE = 6
THRESH=10
GUI = 2
$end

$solvent
dielectric 4.90
$end
--------------------------------------------------------------

             Standard Nuclear Orientation (Angstroms)
    I     Atom           X                Y                Z
 ----------------------------------------------------------------
    1      C       0.0014780000    -6.7414040000     0.2569270000
    2      C       0.0016030000    -6.1556380000     1.5626750000
    3      C       0.0019310000    -5.7914520000    -0.8271970000
    4      C       0.0013740000    -4.8037860000     1.8412530000
    5      H       0.0017940000    -6.8215180000     2.4407090000
    6      C       0.0012270000    -4.3786380000    -0.5354880000
    7      C       0.0008720000    -3.8380320000     0.7949990000
    8      C       0.0006580000    -3.4130620000    -1.5805290000
    9      C       0.0001860000    -2.4264730000     1.0843740000
   10      C       0.0000460000    -2.0593480000    -1.3052580000
   11      C       0.0000000000    -1.4782160000     0.0000000000
   12      H      -0.0003690000    -1.3947830000    -2.1842670000
   13      C       0.0037700000    -6.1879870000    -2.2697190000
   14      C       0.0007670000    -3.7981640000    -3.0111520000
   15      N       0.0024650000    -5.1700030000    -3.2546170000
   16      C       0.0014330000    -4.4249870000     3.2757750000
   17      C      -0.0005760000    -2.0366270000     2.5279510000
   18      N       0.0004000000    -3.0491560000     3.5131040000
   19      O       0.0066230000    -7.3531310000    -2.6610460000
   20      O      -0.0001720000    -2.9868540000    -3.9344100000
   21      O       0.0021510000    -5.2489460000     4.1880590000
   22      O      -0.0020060000    -0.8788290000     2.9408450000
   23      C       0.0035090000    -5.5637990000    -4.6672060000
   24      H       0.0046580000    -6.6640850000    -4.7124230000
   25      H       0.8976100000    -5.1471010000    -5.1692310000
   26      H      -0.8909350000    -5.1487850000    -5.1699920000
   27      C      -0.0000390000    -2.5874870000     4.9042290000
   28      H       0.0010220000    -3.4833290000     5.5468330000
   29      H      -0.8945450000    -1.9649720000     5.0959980000
   30      H       0.8930710000    -1.9629320000     5.0958580000
   31      C       0.0000000000     0.0000000000     0.0000000000
   32      S      -0.0002010000     0.7931710000     1.5805300000
   33      C      -0.0002280000     2.4308850000     0.9049110000
   34      C      -0.0001680000     0.9979900000    -0.9854000000
   35      C      -0.0002670000     2.3182310000    -0.4935280000
   36      H      -0.0001450000     0.7623430000    -2.0599340000
   37      H      -0.0003390000     3.1991640000    -1.1525930000
   38      H      -0.0003110000     3.3115660000     1.5560250000
   39      H      -0.8967790000    -7.3615890000     0.1498810000
   40      H       0.9001000000    -7.3611920000     0.1506560000
   41      H      -1.0800000000    -1.4788310000    -0.0005310000
 ----------------------------------------------------------------

   11   -1571.6950386351      6.00e-07  Convergence criterion met
 Total energy in the final basis set =    -1571.6950386351
        RIMP2         total energy =     -1576.3628712547 a.u.

                    Orbital Energies (a.u.)
 --------------------------------------------------------------

 Alpha MOs
 -- Occupied --
-91.9677 -20.5580 -20.5474 -20.5433 -20.5422 -15.6320 -15.6228 -11.4025
-11.3882 -11.3852 -11.3807 -11.3136 -11.3104 -11.3097 -11.3068 -11.3001
-11.2956 -11.2929 -11.2719 -11.2709 -11.2677 -11.2656 -11.2603 -11.2550
-11.2510 -11.2448 -11.2361  -8.9677  -6.6482  -6.6467  -6.6458  -1.4344
 -1.4137  -1.4042  -1.3929  -1.2690  -1.2572  -1.2325  -1.1859  -1.1452
 -1.1167  -1.0871  -1.0502  -0.9951  -0.9900  -0.9741  -0.9572  -0.9475
 -0.8996  -0.8920  -0.8806  -0.8639  -0.7927  -0.7829  -0.7766  -0.7578
 -0.7320  -0.7277  -0.7018  -0.6901  -0.6889  -0.6772  -0.6695  -0.6599
 -0.6524  -0.6471  -0.6383  -0.6348  -0.6336  -0.6329  -0.6237  -0.6067
 -0.5907  -0.5720  -0.5676  -0.5638  -0.5558  -0.5540  -0.5530  -0.5506
 -0.5491  -0.5461  -0.5213  -0.5141  -0.5127  -0.4875  -0.4820  -0.4650
 -0.4568  -0.4454  -0.4387  -0.4201  -0.4091  -0.3795  -0.3564  -0.3395
 -0.3264  -0.2767

          Ground-State Mulliken Net Atomic Charges

     Atom                 Charge (a.u.)
  ----------------------------------------
      1 C                    -0.084355
      2 C                    -0.029126
      3 C                    -0.104569
      4 C                    -0.120033
      5 H                     0.200165
      6 C                     0.023296
      7 C                     0.130144
      8 C                    -0.095027
      9 C                    -0.183496
     10 C                    -0.160040
     11 C                     0.210336
     12 H                     0.193584
     13 C                     0.342625
     14 C                     0.350678
     15 N                    -0.090409
     16 C                     0.358976
     17 C                     0.378518
     18 N                    -0.086945
     19 O                    -0.493067
     20 O                    -0.506730
     21 O                    -0.498549
     22 O                    -0.442535
     23 C                    -0.204686
     24 H                     0.139764
     25 H                     0.109747
     26 H                     0.109474
     27 C                    -0.199180
     28 H                     0.135420
     29 H                     0.113004
     30 H                     0.113610
     31 C                    -0.048699
     32 S                     0.074076
     33 C                    -0.269472
     34 C                    -0.172558
     35 C                    -0.251294
     36 H                     0.179991
     37 H                     0.178629
     38 H                     0.200607
     39 H                     0.139066
     40 H                     0.139511
     41 H                     0.219549
  ----------------------------------------
  Sum of atomic charges =     0.000000

                    Cartesian Multipole Moments
 -----------------------------------------------------------------
    Charge (ESU x 10^10)
                 0.0000
    Dipole Moment (Debye)
         X      -0.8979      Y      -0.2656      Z       1.2399
       Tot       1.5538
    Quadrupole Moments (Debye-Ang)
        XX    -162.6414     XY       1.3907     YY    -176.6716
        XZ      -0.0328     YZ      -9.8971     ZZ    -185.8832

 Total job time:  320.77s(wall), 9487.05s(cpu)
        *  Thank you very much for using Q-Chem.  Have a nice day.  *
