 Q-Chem 5.4, Q-Chem, Inc., Pleasanton, CA (2021)
 Q-Chem 5.4.0 for Intel X86 EM64T Linux

User input:
--------------------------------------------------------------
$molecule
0 1
C	0.195868	-6.741404	-0.166281
C	1.196048	-6.155638	-1.005696
C	-0.634911	-5.791452	0.530233
C	1.409599	-4.803786	-1.184587
H	1.868538	-6.821518	-1.570232
C	-0.410996	-4.378638	0.343266
C	0.608444	-3.838032	-0.511683
C	-1.211179	-3.413062	1.015440
C	0.830559	-2.426473	-0.697165
C	-0.999915	-2.059348	0.838968
C	0.000000	-1.478216	0.000000
H	-1.673009	-1.394783	1.404302
C	-1.741129	-6.187987	1.456059
C	-2.307170	-3.798164	1.934944
N	-2.494766	-5.170003	2.090139
C	2.508468	-4.424987	-2.106725
C	1.936893	-2.036627	-1.624494
N	2.690936	-3.049156	-2.258486
O	-2.042736	-7.353131	1.705414
O	-3.013823	-2.986854	2.529122
O	3.206857	-5.248946	-2.693680
O	2.254108	-0.878829	-1.888802
C	-3.577543	-5.563799	2.997334
H	-3.612920	-6.664085	3.025519
H	-4.536833	-5.147101	2.635109
H	-3.387762	-5.148785	4.005702
C	3.756883	-2.587487	-3.152347
H	4.248464	-3.483329	-3.566218
H	4.478763	-1.964972	-2.590383
H	3.329599	-1.962932	-3.959687
C	0.000000	0.000000	0.000000
S	0.068929	0.790170	1.580530
C	0.211639	2.421655	0.904911
C	0.086813	0.994207	-0.985400
C	0.201782	2.309433	-0.493528
H	0.066299	0.759454	-2.059934
H	0.278488	3.187020	-1.152593
H	0.288312	3.298992	1.556025
H	0.691254	-7.361589	0.590631
H	-0.463164	-7.361192	-0.786357
H	0.693804	-1.478831	0.827669
$end

$rem
JOBTYPE		SP
EXCHANGE	HF
CORRELATION	pRIMP2
BASIS		cc-pvtz
METHOD		rimp2
AUX_BASIS	rimp2-cc-pvtz
SOLVENT_METHOD	PCM
PURECART	11111
SYMMETRY	false
MEM_TOTAL	110000
SCF_CONVERGENCE = 6
THRESH=10
GUI = 2
$end

$solvent
dielectric 4.90
$end
--------------------------------------------------------------

             Standard Nuclear Orientation (Angstroms)
    I     Atom           X                Y                Z
 ----------------------------------------------------------------
    1      C       0.1958680000    -6.7414040000    -0.1662810000
    2      C       1.1960480000    -6.1556380000    -1.0056960000
    3      C      -0.6349110000    -5.7914520000     0.5302330000
    4      C       1.4095990000    -4.8037860000    -1.1845870000
    5      H       1.8685380000    -6.8215180000    -1.5702320000
    6      C      -0.4109960000    -4.3786380000     0.3432660000
    7      C       0.6084440000    -3.8380320000    -0.5116830000
    8      C      -1.2111790000    -3.4130620000     1.0154400000
    9      C       0.8305590000    -2.4264730000    -0.6971650000
   10      C      -0.9999150000    -2.0593480000     0.8389680000
   11      C       0.0000000000    -1.4782160000     0.0000000000
   12      H      -1.6730090000    -1.3947830000     1.4043020000
   13      C      -1.7411290000    -6.1879870000     1.4560590000
   14      C      -2.3071700000    -3.7981640000     1.9349440000
   15      N      -2.4947660000    -5.1700030000     2.0901390000
   16      C       2.5084680000    -4.4249870000    -2.1067250000
   17      C       1.9368930000    -2.0366270000    -1.6244940000
   18      N       2.6909360000    -3.0491560000    -2.2584860000
   19      O      -2.0427360000    -7.3531310000     1.7054140000
   20      O      -3.0138230000    -2.9868540000     2.5291220000
   21      O       3.2068570000    -5.2489460000    -2.6936800000
   22      O       2.2541080000    -0.8788290000    -1.8888020000
   23      C      -3.5775430000    -5.5637990000     2.9973340000
   24      H      -3.6129200000    -6.6640850000     3.0255190000
   25      H      -4.5368330000    -5.1471010000     2.6351090000
   26      H      -3.3877620000    -5.1487850000     4.0057020000
   27      C       3.7568830000    -2.5874870000    -3.1523470000
   28      H       4.2484640000    -3.4833290000    -3.5662180000
   29      H       4.4787630000    -1.9649720000    -2.5903830000
   30      H       3.3295990000    -1.9629320000    -3.9596870000
   31      C       0.0000000000     0.0000000000     0.0000000000
   32      S       0.0689290000     0.7901700000     1.5805300000
   33      C       0.2116390000     2.4216550000     0.9049110000
   34      C       0.0868130000     0.9942070000    -0.9854000000
   35      C       0.2017820000     2.3094330000    -0.4935280000
   36      H       0.0662990000     0.7594540000    -2.0599340000
   37      H       0.2784880000     3.1870200000    -1.1525930000
   38      H       0.2883120000     3.2989920000     1.5560250000
   39      H       0.6912540000    -7.3615890000     0.5906310000
   40      H      -0.4631640000    -7.3611920000    -0.7863570000
   41      H       0.6938040000    -1.4788310000     0.8276690000
 ----------------------------------------------------------------

   11   -1571.7444363935      5.71e-07  Convergence criterion met
 Total energy in the final basis set =    -1571.7444363935
        RIMP2         total energy =     -1576.3993236651 a.u.

                    Orbital Energies (a.u.)
 --------------------------------------------------------------

 Alpha MOs
 -- Occupied --
-91.9922 -20.5513 -20.5446 -20.5420 -20.5408 -15.6270 -15.6214 -11.3933
-11.3853 -11.3838 -11.3794 -11.3089 -11.3088 -11.3054 -11.3049 -11.2968
-11.2951 -11.2903 -11.2806 -11.2696 -11.2683 -11.2656 -11.2631 -11.2594
-11.2530 -11.2503 -11.2490  -8.9920  -6.6729  -6.6724  -6.6717  -1.4195
 -1.4124  -1.3973  -1.3916  -1.2622  -1.2556  -1.2307  -1.1872  -1.1520
 -1.1144  -1.0872  -1.0471  -0.9961  -0.9879  -0.9830  -0.9552  -0.9505
 -0.8966  -0.8881  -0.8771  -0.8604  -0.7940  -0.7764  -0.7711  -0.7663
 -0.7414  -0.7150  -0.7030  -0.6912  -0.6770  -0.6722  -0.6675  -0.6574
 -0.6474  -0.6440  -0.6385  -0.6317  -0.6310  -0.6271  -0.6227  -0.6053
 -0.5865  -0.5741  -0.5650  -0.5606  -0.5569  -0.5516  -0.5500  -0.5479
 -0.5475  -0.5436  -0.5207  -0.5170  -0.5096  -0.4835  -0.4754  -0.4678
 -0.4579  -0.4514  -0.4430  -0.4350  -0.4134  -0.4077  -0.3545  -0.3529
 -0.3290  -0.2847

          Ground-State Mulliken Net Atomic Charges

     Atom                 Charge (a.u.)
  ----------------------------------------
      1 C                    -0.085352
      2 C                    -0.029182
      3 C                    -0.110845
      4 C                    -0.126703
      5 H                     0.198962
      6 C                     0.018724
      7 C                     0.123582
      8 C                    -0.075642
      9 C                    -0.152686
     10 C                    -0.175410
     11 C                     0.250925
     12 H                     0.194084
     13 C                     0.344005
     14 C                     0.349853
     15 N                    -0.089951
     16 C                     0.357720
     17 C                     0.350500
     18 N                    -0.088799
     19 O                    -0.494038
     20 O                    -0.506608
     21 O                    -0.501717
     22 O                    -0.469439
     23 C                    -0.204633
     24 H                     0.139442
     25 H                     0.109262
     26 H                     0.109226
     27 C                    -0.197279
     28 H                     0.133435
     29 H                     0.111650
     30 H                     0.111103
     31 C                    -0.089434
     32 S                     0.009382
     33 C                    -0.220747
     34 C                    -0.145922
     35 C                    -0.208093
     36 H                     0.184168
     37 H                     0.190645
     38 H                     0.212586
     39 H                     0.137722
     40 H                     0.138069
     41 H                     0.197434
  ----------------------------------------
  Sum of atomic charges =     0.000000

                    Cartesian Multipole Moments
 -----------------------------------------------------------------
    Charge (ESU x 10^10)
                 0.0000
    Dipole Moment (Debye)
         X       1.4241      Y       2.1281      Z      -1.0774
       Tot       2.7781
    Quadrupole Moments (Debye-Ang)
        XX    -181.9647     XY      -6.4512     YY    -177.1588
        XZ      16.4071     YZ       5.1702     ZZ    -170.1130

 Total job time:  302.07s(wall), 8681.78s(cpu)
        *  Thank you very much for using Q-Chem.  Have a nice day.  *
