 Q-Chem 5.4, Q-Chem, Inc., Pleasanton, CA (2021)
 Q-Chem 5.4.0 for Intel X86 EM64T Linux

User input:
--------------------------------------------------------------
$molecule
0 1
C	-0.129743	-6.741404	-0.221766
C	-0.782726	-6.155638	-1.352515
C	0.411926	-5.791452	0.717339
C	-0.921816	-4.803786	-1.593885
H	-1.221908	-6.821518	-2.112819
C	0.266682	-4.378638	0.464360
C	-0.398255	-3.838032	-0.688053
C	0.789694	-3.413062	1.369108
C	-0.542349	-2.426473	-0.939002
C	0.652589	-2.059348	1.130409
C	0.000000	-1.478216	0.000000
H	1.092453	-1.394783	1.891446
C	1.131595	-6.187987	1.967519
C	1.504912	-3.798164	2.608118
N	1.625174	-5.170003	2.819813
C	-1.639129	-4.424987	-2.836188
C	-1.263477	-2.036627	-2.189558
N	-1.756898	-3.049156	-3.042237
O	1.324787	-7.353131	2.307845
O	1.967354	-2.986854	3.407213
O	-2.095892	-5.248946	-3.625890
O	-1.468685	-0.878829	-2.547850
C	2.330564	-5.563799	4.043674
H	2.352178	-6.664085	4.083407
H	1.807263	-5.147101	4.925490
H	3.356568	-5.148785	4.031877
C	-2.452080	-2.587487	-4.247206
H	-2.774302	-3.483329	-4.803187
H	-1.773301	-1.964972	-4.860536
H	-3.321351	-1.962932	-3.966607
C	0.000000	0.000000	0.000000
S	0.396411	0.687007	1.580530
C	1.215245	2.105322	0.904911
C	0.498850	0.864369	-0.985400
C	1.158885	2.007781	-0.493528
H	0.381046	0.660280	-2.059934
H	1.599289	2.770727	-1.152593
H	1.655514	2.868056	1.556025
H	0.701693	-7.361589	-0.578191
H	-0.854838	-7.361192	0.319578
H	0.935572	-1.478831	-0.539540
$end

$rem
JOBTYPE		SP
EXCHANGE	HF
CORRELATION	pRIMP2
BASIS		cc-pvtz
METHOD		rimp2
AUX_BASIS	rimp2-cc-pvtz
SOLVENT_METHOD	PCM
PURECART	11111
SYMMETRY	false
MEM_TOTAL	110000
SCF_CONVERGENCE = 6
THRESH=10
GUI = 2
$end

$solvent
dielectric 4.90
$end
--------------------------------------------------------------

             Standard Nuclear Orientation (Angstroms)
    I     Atom           X                Y                Z
 ----------------------------------------------------------------
    1      C      -0.1297430000    -6.7414040000    -0.2217660000
    2      C      -0.7827260000    -6.1556380000    -1.3525150000
    3      C       0.4119260000    -5.7914520000     0.7173390000
    4      C      -0.9218160000    -4.8037860000    -1.5938850000
    5      H      -1.2219080000    -6.8215180000    -2.1128190000
    6      C       0.2666820000    -4.3786380000     0.4643600000
    7      C      -0.3982550000    -3.8380320000    -0.6880530000
    8      C       0.7896940000    -3.4130620000     1.3691080000
    9      C      -0.5423490000    -2.4264730000    -0.9390020000
   10      C       0.6525890000    -2.0593480000     1.1304090000
   11      C       0.0000000000    -1.4782160000     0.0000000000
   12      H       1.0924530000    -1.3947830000     1.8914460000
   13      C       1.1315950000    -6.1879870000     1.9675190000
   14      C       1.5049120000    -3.7981640000     2.6081180000
   15      N       1.6251740000    -5.1700030000     2.8198130000
   16      C      -1.6391290000    -4.4249870000    -2.8361880000
   17      C      -1.2634770000    -2.0366270000    -2.1895580000
   18      N      -1.7568980000    -3.0491560000    -3.0422370000
   19      O       1.3247870000    -7.3531310000     2.3078450000
   20      O       1.9673540000    -2.9868540000     3.4072130000
   21      O      -2.0958920000    -5.2489460000    -3.6258900000
   22      O      -1.4686850000    -0.8788290000    -2.5478500000
   23      C       2.3305640000    -5.5637990000     4.0436740000
   24      H       2.3521780000    -6.6640850000     4.0834070000
   25      H       1.8072630000    -5.1471010000     4.9254900000
   26      H       3.3565680000    -5.1487850000     4.0318770000
   27      C      -2.4520800000    -2.5874870000    -4.2472060000
   28      H      -2.7743020000    -3.4833290000    -4.8031870000
   29      H      -1.7733010000    -1.9649720000    -4.8605360000
   30      H      -3.3213510000    -1.9629320000    -3.9666070000
   31      C       0.0000000000     0.0000000000     0.0000000000
   32      S       0.3964110000     0.6870070000     1.5805300000
   33      C       1.2152450000     2.1053220000     0.9049110000
   34      C       0.4988500000     0.8643690000    -0.9854000000
   35      C       1.1588850000     2.0077810000    -0.4935280000
   36      H       0.3810460000     0.6602800000    -2.0599340000
   37      H       1.5992890000     2.7707270000    -1.1525930000
   38      H       1.6555140000     2.8680560000     1.5560250000
   39      H       0.7016930000    -7.3615890000    -0.5781910000
   40      H      -0.8548380000    -7.3611920000     0.3195780000
   41      H       0.9355720000    -1.4788310000    -0.5395400000
 ----------------------------------------------------------------

   11   -1571.7215103776      5.79e-07  Convergence criterion met
 Total energy in the final basis set =    -1571.7215103776
        RIMP2         total energy =     -1576.3839348106 a.u.

                    Orbital Energies (a.u.)
 --------------------------------------------------------------

 Alpha MOs
 -- Occupied --
-91.9908 -20.5536 -20.5448 -20.5408 -20.5401 -15.6277 -15.6208 -11.3948
-11.3855 -11.3827 -11.3785 -11.3082 -11.3045 -11.3045 -11.3038 -11.2965
-11.2962 -11.2905 -11.2823 -11.2680 -11.2677 -11.2639 -11.2635 -11.2591
-11.2523 -11.2511 -11.2500  -8.9912  -6.6720  -6.6714  -6.6709  -1.4209
 -1.4116  -1.3982  -1.3907  -1.2628  -1.2550  -1.2316  -1.1897  -1.1514
 -1.1137  -1.0861  -1.0471  -0.9965  -0.9883  -0.9872  -0.9551  -0.9489
 -0.8968  -0.8885  -0.8765  -0.8593  -0.7959  -0.7802  -0.7708  -0.7601
 -0.7393  -0.7165  -0.7014  -0.6922  -0.6834  -0.6718  -0.6672  -0.6571
 -0.6474  -0.6465  -0.6367  -0.6316  -0.6305  -0.6278  -0.6224  -0.6045
 -0.5902  -0.5743  -0.5668  -0.5612  -0.5578  -0.5518  -0.5501  -0.5496
 -0.5473  -0.5431  -0.5187  -0.5132  -0.5072  -0.4857  -0.4760  -0.4640
 -0.4570  -0.4514  -0.4424  -0.4344  -0.4141  -0.4072  -0.3540  -0.3517
 -0.3325  -0.2789

          Ground-State Mulliken Net Atomic Charges

     Atom                 Charge (a.u.)
  ----------------------------------------
      1 C                    -0.084514
      2 C                    -0.031649
      3 C                    -0.110559
      4 C                    -0.122201
      5 H                     0.198726
      6 C                     0.020165
      7 C                     0.120110
      8 C                    -0.052812
      9 C                    -0.191932
     10 C                    -0.176650
     11 C                     0.172453
     12 H                     0.190658
     13 C                     0.340792
     14 C                     0.346468
     15 N                    -0.089511
     16 C                     0.357011
     17 C                     0.356088
     18 N                    -0.090240
     19 O                    -0.495804
     20 O                    -0.508567
     21 O                    -0.501239
     22 O                    -0.475566
     23 C                    -0.205145
     24 H                     0.139375
     25 H                     0.109265
     26 H                     0.108913
     27 C                    -0.198102
     28 H                     0.133763
     29 H                     0.110757
     30 H                     0.112371
     31 C                     0.006097
     32 S                     0.006427
     33 C                    -0.196395
     34 C                    -0.157625
     35 C                    -0.232199
     36 H                     0.195884
     37 H                     0.191275
     38 H                     0.213422
     39 H                     0.137096
     40 H                     0.137383
     41 H                     0.216211
  ----------------------------------------
  Sum of atomic charges =     0.000000

                    Cartesian Multipole Moments
 -----------------------------------------------------------------
    Charge (ESU x 10^10)
                 0.0000
    Dipole Moment (Debye)
         X       1.2919      Y       2.0734      Z      -2.2335
       Tot       3.3101
    Quadrupole Moments (Debye-Ang)
        XX    -168.1136     XY       8.1302     YY    -181.6376
        XZ     -14.1966     YZ       9.2494     ZZ    -180.9957

 Total job time:  313.06s(wall), 9066.39s(cpu)
        *  Thank you very much for using Q-Chem.  Have a nice day.  *
