 Q-Chem 5.4, Q-Chem, Inc., Pleasanton, CA (2021)
 Q-Chem 5.4.0 for Intel X86 EM64T Linux

User input:
--------------------------------------------------------------
$molecule
0 1
C	0.256927	-6.741404	-0.001478
C	1.562675	-6.155638	-0.001603
C	-0.827197	-5.791452	-0.001931
C	1.841253	-4.803786	-0.001374
H	2.440709	-6.821518	-0.001794
C	-0.535488	-4.378638	-0.001227
C	0.794999	-3.838032	-0.000872
C	-1.580529	-3.413062	-0.000658
C	1.084374	-2.426473	-0.000186
C	-1.305258	-2.059348	-0.000046
C	-0.000000	-1.478216	-0.000000
H	-2.184267	-1.394783	0.000369
C	-2.269719	-6.187987	-0.003770
C	-3.011152	-3.798164	-0.000767
N	-3.254617	-5.170003	-0.002465
C	3.275775	-4.424987	-0.001433
C	2.527951	-2.036627	0.000576
N	3.513104	-3.049156	-0.000400
O	-2.661046	-7.353131	-0.006623
O	-3.934410	-2.986854	0.000172
O	4.188059	-5.248946	-0.002151
O	2.940845	-0.878829	0.002006
C	-4.667206	-5.563799	-0.003509
H	-4.712423	-6.664085	-0.004658
H	-5.169231	-5.147101	-0.897610
H	-5.169992	-5.148785	0.890935
C	4.904229	-2.587487	0.000039
H	5.546833	-3.483329	-0.001022
H	5.095998	-1.964972	0.894545
H	5.095858	-1.962932	-0.893071
C	0.000000	0.000000	0.000000
S	0.686805	0.396760	1.580530
C	2.105095	1.215640	0.904911
C	0.864201	0.499140	-0.985400
C	2.007514	1.159347	-0.493528
H	0.660136	0.381296	-2.059934
H	2.770388	1.599875	-1.152593
H	2.867745	1.656053	1.556025
H	0.149881	-7.361589	0.896779
H	0.150656	-7.361192	-0.900100
H	-0.000531	-1.478831	1.080000
$end

$rem
JOBTYPE		SP
EXCHANGE	HF
CORRELATION	pRIMP2
BASIS		cc-pvtz
METHOD		rimp2
AUX_BASIS	rimp2-cc-pvtz
SOLVENT_METHOD	PCM
PURECART	11111
SYMMETRY	false
MEM_TOTAL	110000
SCF_CONVERGENCE = 6
THRESH=10
GUI = 2
$end

$solvent
dielectric 4.90
$end
--------------------------------------------------------------

             Standard Nuclear Orientation (Angstroms)
    I     Atom           X                Y                Z
 ----------------------------------------------------------------
    1      C       0.2569270000    -6.7414040000    -0.0014780000
    2      C       1.5626750000    -6.1556380000    -0.0016030000
    3      C      -0.8271970000    -5.7914520000    -0.0019310000
    4      C       1.8412530000    -4.8037860000    -0.0013740000
    5      H       2.4407090000    -6.8215180000    -0.0017940000
    6      C      -0.5354880000    -4.3786380000    -0.0012270000
    7      C       0.7949990000    -3.8380320000    -0.0008720000
    8      C      -1.5805290000    -3.4130620000    -0.0006580000
    9      C       1.0843740000    -2.4264730000    -0.0001860000
   10      C      -1.3052580000    -2.0593480000    -0.0000460000
   11      C       0.0000000000    -1.4782160000     0.0000000000
   12      H      -2.1842670000    -1.3947830000     0.0003690000
   13      C      -2.2697190000    -6.1879870000    -0.0037700000
   14      C      -3.0111520000    -3.7981640000    -0.0007670000
   15      N      -3.2546170000    -5.1700030000    -0.0024650000
   16      C       3.2757750000    -4.4249870000    -0.0014330000
   17      C       2.5279510000    -2.0366270000     0.0005760000
   18      N       3.5131040000    -3.0491560000    -0.0004000000
   19      O      -2.6610460000    -7.3531310000    -0.0066230000
   20      O      -3.9344100000    -2.9868540000     0.0001720000
   21      O       4.1880590000    -5.2489460000    -0.0021510000
   22      O       2.9408450000    -0.8788290000     0.0020060000
   23      C      -4.6672060000    -5.5637990000    -0.0035090000
   24      H      -4.7124230000    -6.6640850000    -0.0046580000
   25      H      -5.1692310000    -5.1471010000    -0.8976100000
   26      H      -5.1699920000    -5.1487850000     0.8909350000
   27      C       4.9042290000    -2.5874870000     0.0000390000
   28      H       5.5468330000    -3.4833290000    -0.0010220000
   29      H       5.0959980000    -1.9649720000     0.8945450000
   30      H       5.0958580000    -1.9629320000    -0.8930710000
   31      C       0.0000000000     0.0000000000     0.0000000000
   32      S       0.6868050000     0.3967600000     1.5805300000
   33      C       2.1050950000     1.2156400000     0.9049110000
   34      C       0.8642010000     0.4991400000    -0.9854000000
   35      C       2.0075140000     1.1593470000    -0.4935280000
   36      H       0.6601360000     0.3812960000    -2.0599340000
   37      H       2.7703880000     1.5998750000    -1.1525930000
   38      H       2.8677450000     1.6560530000     1.5560250000
   39      H       0.1498810000    -7.3615890000     0.8967790000
   40      H       0.1506560000    -7.3611920000    -0.9001000000
   41      H      -0.0005310000    -1.4788310000     1.0800000000
 ----------------------------------------------------------------

   11   -1571.6346280234      6.98e-07  Convergence criterion met
 Total energy in the final basis set =    -1571.6346280234
        RIMP2         total energy =     -1576.3159778413 a.u.

                    Orbital Energies (a.u.)
 --------------------------------------------------------------

 Alpha MOs
 -- Occupied --
-91.9816 -20.5437 -20.5430 -20.5367 -20.5353 -15.6262 -15.6173 -11.3908
-11.3840 -11.3788 -11.3736 -11.3052 -11.3007 -11.2995 -11.2983 -11.2972
-11.2947 -11.2757 -11.2699 -11.2662 -11.2638 -11.2617 -11.2571 -11.2544
-11.2535 -11.2498 -11.2422  -8.9830  -6.6638  -6.6629  -6.6626  -1.4207
 -1.4078  -1.3978  -1.3868  -1.2620  -1.2514  -1.2283  -1.1890  -1.1490
 -1.1090  -1.0813  -1.0424  -0.9925  -0.9896  -0.9860  -0.9528  -0.9505
 -0.8940  -0.8777  -0.8741  -0.8555  -0.7864  -0.7776  -0.7726  -0.7660
 -0.7376  -0.7160  -0.7019  -0.6901  -0.6775  -0.6675  -0.6649  -0.6548
 -0.6459  -0.6421  -0.6341  -0.6291  -0.6281  -0.6263  -0.6208  -0.6003
 -0.5814  -0.5757  -0.5663  -0.5614  -0.5532  -0.5491  -0.5490  -0.5466
 -0.5449  -0.5417  -0.5170  -0.5067  -0.4953  -0.4767  -0.4690  -0.4642
 -0.4512  -0.4389  -0.4313  -0.4271  -0.4140  -0.4040  -0.3491  -0.3430
 -0.3210  -0.2805

          Ground-State Mulliken Net Atomic Charges

     Atom                 Charge (a.u.)
  ----------------------------------------
      1 C                    -0.084715
      2 C                    -0.033427
      3 C                    -0.124324
      4 C                    -0.115450
      5 H                     0.197467
      6 C                     0.016415
      7 C                     0.115177
      8 C                    -0.090570
      9 C                    -0.184697
     10 C                    -0.152830
     11 C                     0.201680
     12 H                     0.192280
     13 C                     0.339924
     14 C                     0.346592
     15 N                    -0.088401
     16 C                     0.353213
     17 C                     0.386063
     18 N                    -0.087635
     19 O                    -0.501461
     20 O                    -0.512715
     21 O                    -0.503231
     22 O                    -0.469905
     23 C                    -0.205986
     24 H                     0.138634
     25 H                     0.108092
     26 H                     0.108189
     27 C                    -0.197680
     28 H                     0.135010
     29 H                     0.109544
     30 H                     0.109570
     31 C                    -0.157935
     32 S                    -0.018446
     33 C                    -0.121473
     34 C                    -0.124236
     35 C                    -0.122992
     36 H                     0.192904
     37 H                     0.177329
     38 H                     0.207234
     39 H                     0.135350
     40 H                     0.135422
     41 H                     0.192018
  ----------------------------------------
  Sum of atomic charges =     0.000000

                    Cartesian Multipole Moments
 -----------------------------------------------------------------
    Charge (ESU x 10^10)
                 0.0000
    Dipole Moment (Debye)
         X       5.1711      Y       2.9216      Z      -0.4365
       Tot       5.9554
    Quadrupole Moments (Debye-Ang)
        XX    -185.7327     XY      -5.3239     YY    -194.6366
        XZ       1.1562     YZ      -0.8009     ZZ    -155.9328

 Total job time:  307.93s(wall), 9052.74s(cpu)
        *  Thank you very much for using Q-Chem.  Have a nice day.  *
