 Q-Chem 5.4, Q-Chem, Inc., Pleasanton, CA (2021)
 Q-Chem 5.4.0 for Intel X86 EM64T Linux

User input:
--------------------------------------------------------------
$molecule
0 1
C	0.129743	-6.741404	0.221766
C	0.782726	-6.155638	1.352515
C	-0.411926	-5.791452	-0.717339
C	0.921816	-4.803786	1.593885
H	1.221908	-6.821518	2.112819
C	-0.266682	-4.378638	-0.464360
C	0.398255	-3.838032	0.688053
C	-0.789694	-3.413062	-1.369108
C	0.542349	-2.426473	0.939002
C	-0.652589	-2.059348	-1.130409
C	-0.000000	-1.478216	-0.000000
H	-1.092453	-1.394783	-1.891446
C	-1.131595	-6.187987	-1.967519
C	-1.504912	-3.798164	-2.608118
N	-1.625174	-5.170003	-2.819813
C	1.639129	-4.424987	2.836188
C	1.263477	-2.036627	2.189558
N	1.756898	-3.049156	3.042237
O	-1.324787	-7.353131	-2.307845
O	-1.967354	-2.986854	-3.407213
O	2.095892	-5.248946	3.625890
O	1.468685	-0.878829	2.547850
C	-2.330564	-5.563799	-4.043674
H	-2.352178	-6.664085	-4.083407
H	-1.807263	-5.147101	-4.925490
H	-3.356568	-5.148785	-4.031877
C	2.452080	-2.587487	4.247206
H	2.774302	-3.483329	4.803187
H	1.773301	-1.964972	4.860536
H	3.321351	-1.962932	3.966607
C	0.000000	0.000000	0.000000
S	0.335026	0.718942	1.580530
C	1.027130	2.203226	0.904911
C	0.421617	0.904557	-0.985400
C	0.979485	2.101144	-0.493528
H	0.322049	0.690978	-2.059934
H	1.351718	2.899571	-1.152593
H	1.399246	3.001430	1.556025
H	-0.701693	-7.361589	0.578191
H	0.854838	-7.361192	-0.319578
H	-0.935572	-1.478831	0.539540
$end

$rem
JOBTYPE		SP
EXCHANGE	HF
CORRELATION	pRIMP2
BASIS		cc-pvtz
METHOD		rimp2
AUX_BASIS	rimp2-cc-pvtz
SOLVENT_METHOD	PCM
PURECART	11111
SYMMETRY	false
MEM_TOTAL	110000
SCF_CONVERGENCE = 6
THRESH=10
GUI = 2
$end

$solvent
dielectric 4.90
$end
--------------------------------------------------------------

             Standard Nuclear Orientation (Angstroms)
    I     Atom           X                Y                Z
 ----------------------------------------------------------------
    1      C       0.1297430000    -6.7414040000     0.2217660000
    2      C       0.7827260000    -6.1556380000     1.3525150000
    3      C      -0.4119260000    -5.7914520000    -0.7173390000
    4      C       0.9218160000    -4.8037860000     1.5938850000
    5      H       1.2219080000    -6.8215180000     2.1128190000
    6      C      -0.2666820000    -4.3786380000    -0.4643600000
    7      C       0.3982550000    -3.8380320000     0.6880530000
    8      C      -0.7896940000    -3.4130620000    -1.3691080000
    9      C       0.5423490000    -2.4264730000     0.9390020000
   10      C      -0.6525890000    -2.0593480000    -1.1304090000
   11      C       0.0000000000    -1.4782160000     0.0000000000
   12      H      -1.0924530000    -1.3947830000    -1.8914460000
   13      C      -1.1315950000    -6.1879870000    -1.9675190000
   14      C      -1.5049120000    -3.7981640000    -2.6081180000
   15      N      -1.6251740000    -5.1700030000    -2.8198130000
   16      C       1.6391290000    -4.4249870000     2.8361880000
   17      C       1.2634770000    -2.0366270000     2.1895580000
   18      N       1.7568980000    -3.0491560000     3.0422370000
   19      O      -1.3247870000    -7.3531310000    -2.3078450000
   20      O      -1.9673540000    -2.9868540000    -3.4072130000
   21      O       2.0958920000    -5.2489460000     3.6258900000
   22      O       1.4686850000    -0.8788290000     2.5478500000
   23      C      -2.3305640000    -5.5637990000    -4.0436740000
   24      H      -2.3521780000    -6.6640850000    -4.0834070000
   25      H      -1.8072630000    -5.1471010000    -4.9254900000
   26      H      -3.3565680000    -5.1487850000    -4.0318770000
   27      C       2.4520800000    -2.5874870000     4.2472060000
   28      H       2.7743020000    -3.4833290000     4.8031870000
   29      H       1.7733010000    -1.9649720000     4.8605360000
   30      H       3.3213510000    -1.9629320000     3.9666070000
   31      C       0.0000000000     0.0000000000     0.0000000000
   32      S       0.3350260000     0.7189420000     1.5805300000
   33      C       1.0271300000     2.2032260000     0.9049110000
   34      C       0.4216170000     0.9045570000    -0.9854000000
   35      C       0.9794850000     2.1011440000    -0.4935280000
   36      H       0.3220490000     0.6909780000    -2.0599340000
   37      H       1.3517180000     2.8995710000    -1.1525930000
   38      H       1.3992460000     3.0014300000     1.5560250000
   39      H      -0.7016930000    -7.3615890000     0.5781910000
   40      H       0.8548380000    -7.3611920000    -0.3195780000
   41      H      -0.9355720000    -1.4788310000     0.5395400000
 ----------------------------------------------------------------

   11   -1571.6713583119      6.28e-07  Convergence criterion met
 Total energy in the final basis set =    -1571.6713583119
        RIMP2         total energy =     -1576.3484321928 a.u.

                    Orbital Energies (a.u.)
 --------------------------------------------------------------

 Alpha MOs
 -- Occupied --
-91.9773 -20.5525 -20.5462 -20.5415 -20.5404 -15.6303 -15.6213 -11.3999
-11.3869 -11.3834 -11.3789 -11.3112 -11.3080 -11.3076 -11.3052 -11.2986
-11.2868 -11.2800 -11.2702 -11.2695 -11.2690 -11.2649 -11.2643 -11.2594
-11.2535 -11.2446 -11.2341  -8.9777  -6.6580  -6.6572  -6.6564  -1.4309
 -1.4121  -1.4026  -1.3912  -1.2671  -1.2556  -1.2298  -1.1839  -1.1458
 -1.1147  -1.0851  -1.0481  -0.9936  -0.9888  -0.9764  -0.9560  -0.9476
 -0.8977  -0.8890  -0.8790  -0.8621  -0.7900  -0.7803  -0.7749  -0.7604
 -0.7299  -0.7242  -0.7013  -0.6902  -0.6867  -0.6717  -0.6681  -0.6584
 -0.6508  -0.6430  -0.6381  -0.6325  -0.6317  -0.6301  -0.6245  -0.6050
 -0.5879  -0.5710  -0.5658  -0.5626  -0.5573  -0.5532  -0.5529  -0.5489
 -0.5479  -0.5448  -0.5182  -0.5146  -0.5109  -0.4858  -0.4748  -0.4622
 -0.4551  -0.4439  -0.4382  -0.4265  -0.4091  -0.4074  -0.3541  -0.3268
 -0.3066  -0.2788

          Ground-State Mulliken Net Atomic Charges

     Atom                 Charge (a.u.)
  ----------------------------------------
      1 C                    -0.084434
      2 C                    -0.027425
      3 C                    -0.112475
      4 C                    -0.123013
      5 H                     0.199484
      6 C                     0.018894
      7 C                     0.123456
      8 C                    -0.099365
      9 C                    -0.232118
     10 C                    -0.141630
     11 C                     0.222132
     12 H                     0.194442
     13 C                     0.342653
     14 C                     0.348443
     15 N                    -0.089705
     16 C                     0.357519
     17 C                     0.415971
     18 N                    -0.089410
     19 O                    -0.495228
     20 O                    -0.508007
     21 O                    -0.499944
     22 O                    -0.445281
     23 C                    -0.204841
     24 H                     0.139452
     25 H                     0.109154
     26 H                     0.109127
     27 C                    -0.198932
     28 H                     0.134799
     29 H                     0.112360
     30 H                     0.112655
     31 C                    -0.092337
     32 S                     0.077533
     33 C                    -0.219526
     34 C                    -0.164999
     35 C                    -0.250806
     36 H                     0.184857
     37 H                     0.182630
     38 H                     0.205845
     39 H                     0.138071
     40 H                     0.138392
     41 H                     0.211609
  ----------------------------------------
  Sum of atomic charges =     0.000000

                    Cartesian Multipole Moments
 -----------------------------------------------------------------
    Charge (ESU x 10^10)
                 0.0000
    Dipole Moment (Debye)
         X       1.1576      Y       0.7700      Z       1.8699
       Tot       2.3301
    Quadrupole Moments (Debye-Ang)
        XX    -168.6174     XY      -0.2104     YY    -180.8690
        XZ     -12.0277     YZ      -8.6678     ZZ    -178.5649

 Total job time:  292.36s(wall), 9037.27s(cpu)
        *  Thank you very much for using Q-Chem.  Have a nice day.  *
