 Q-Chem 5.4, Q-Chem, Inc., Pleasanton, CA (2021)
 Q-Chem 5.4.0 for Intel X86 EM64T Linux

User input:
--------------------------------------------------------------
$molecule
0 1
C	0.127184	-6.741404	-0.223244
C	0.779949	-6.155638	-1.354118
C	-0.415271	-5.791452	0.715408
C	0.919437	-4.803786	-1.595259
H	1.218801	-6.821518	-2.114613
C	-0.268806	-4.378638	0.463133
C	0.396744	-3.838032	-0.688925
C	-0.790835	-3.413062	1.368449
C	0.542026	-2.426473	-0.939189
C	-0.652669	-2.059348	1.130363
C	0.000000	-1.478216	0.000000
H	-1.091814	-1.394783	1.891815
C	-1.138124	-6.187987	1.963749
C	-1.506241	-3.798164	2.607351
N	-1.629443	-5.170003	2.817348
C	1.636646	-4.424987	-2.837621
C	1.264474	-2.036627	-2.188982
N	1.756205	-3.049156	-3.042637
O	-1.336258	-7.353131	2.301222
O	-1.967056	-2.986854	3.407386
O	2.092167	-5.248946	-3.628041
O	1.472160	-0.878829	-2.545844
C	-2.336642	-5.563799	4.040164
H	-2.360245	-6.664085	4.078749
H	-3.361968	-5.147101	4.027880
H	-1.813424	-5.148785	4.922811
C	2.452149	-2.587487	-4.247167
H	2.772531	-3.483329	-4.804209
H	3.322697	-1.964972	-3.965991
H	1.774507	-1.962932	-4.859678
C	0.000000	0.000000	0.000000
S	0.205093	0.766196	1.580530
C	0.628939	2.348114	0.904911
C	0.258137	0.964028	-0.985400
C	0.599745	2.239309	-0.493528
H	0.197169	0.736404	-2.059934
H	0.827678	3.090243	-1.152593
H	0.856796	3.198808	1.556025
H	0.851574	-7.361589	0.318588
H	-0.704181	-7.361192	-0.580522
H	0.935042	-1.478831	0.540459
$end

$rem
JOBTYPE		SP
EXCHANGE	HF
CORRELATION	pRIMP2
BASIS		cc-pvtz
METHOD		rimp2
AUX_BASIS	rimp2-cc-pvtz
SOLVENT_METHOD	PCM
PURECART	11111
SYMMETRY	false
MEM_TOTAL	110000
SCF_CONVERGENCE = 6
THRESH=10
GUI = 2
$end

$solvent
dielectric 4.90
$end
--------------------------------------------------------------

             Standard Nuclear Orientation (Angstroms)
    I     Atom           X                Y                Z
 ----------------------------------------------------------------
    1      C       0.1271840000    -6.7414040000    -0.2232440000
    2      C       0.7799490000    -6.1556380000    -1.3541180000
    3      C      -0.4152710000    -5.7914520000     0.7154080000
    4      C       0.9194370000    -4.8037860000    -1.5952590000
    5      H       1.2188010000    -6.8215180000    -2.1146130000
    6      C      -0.2688060000    -4.3786380000     0.4631330000
    7      C       0.3967440000    -3.8380320000    -0.6889250000
    8      C      -0.7908350000    -3.4130620000     1.3684490000
    9      C       0.5420260000    -2.4264730000    -0.9391890000
   10      C      -0.6526690000    -2.0593480000     1.1303630000
   11      C       0.0000000000    -1.4782160000     0.0000000000
   12      H      -1.0918140000    -1.3947830000     1.8918150000
   13      C      -1.1381240000    -6.1879870000     1.9637490000
   14      C      -1.5062410000    -3.7981640000     2.6073510000
   15      N      -1.6294430000    -5.1700030000     2.8173480000
   16      C       1.6366460000    -4.4249870000    -2.8376210000
   17      C       1.2644740000    -2.0366270000    -2.1889820000
   18      N       1.7562050000    -3.0491560000    -3.0426370000
   19      O      -1.3362580000    -7.3531310000     2.3012220000
   20      O      -1.9670560000    -2.9868540000     3.4073860000
   21      O       2.0921670000    -5.2489460000    -3.6280410000
   22      O       1.4721600000    -0.8788290000    -2.5458440000
   23      C      -2.3366420000    -5.5637990000     4.0401640000
   24      H      -2.3602450000    -6.6640850000     4.0787490000
   25      H      -3.3619680000    -5.1471010000     4.0278800000
   26      H      -1.8134240000    -5.1487850000     4.9228110000
   27      C       2.4521490000    -2.5874870000    -4.2471670000
   28      H       2.7725310000    -3.4833290000    -4.8042090000
   29      H       3.3226970000    -1.9649720000    -3.9659910000
   30      H       1.7745070000    -1.9629320000    -4.8596780000
   31      C       0.0000000000     0.0000000000     0.0000000000
   32      S       0.2050930000     0.7661960000     1.5805300000
   33      C       0.6289390000     2.3481140000     0.9049110000
   34      C       0.2581370000     0.9640280000    -0.9854000000
   35      C       0.5997450000     2.2393090000    -0.4935280000
   36      H       0.1971690000     0.7364040000    -2.0599340000
   37      H       0.8276780000     3.0902430000    -1.1525930000
   38      H       0.8567960000     3.1988080000     1.5560250000
   39      H       0.8515740000    -7.3615890000     0.3185880000
   40      H      -0.7041810000    -7.3611920000    -0.5805220000
   41      H       0.9350420000    -1.4788310000     0.5404590000
 ----------------------------------------------------------------

   11   -1571.7352249541      5.82e-07  Convergence criterion met
 Total energy in the final basis set =    -1571.7352249541
        RIMP2         total energy =     -1576.3928605472 a.u.

                    Orbital Energies (a.u.)
 --------------------------------------------------------------

 Alpha MOs
 -- Occupied --
-91.9892 -20.5513 -20.5452 -20.5423 -20.5412 -15.6279 -15.6217 -11.3951
-11.3858 -11.3841 -11.3797 -11.3092 -11.3089 -11.3059 -11.3052 -11.2971
-11.2937 -11.2906 -11.2789 -11.2701 -11.2687 -11.2667 -11.2638 -11.2595
-11.2533 -11.2478 -11.2435  -8.9893  -6.6702  -6.6697  -6.6690  -1.4213
 -1.4127  -1.3986  -1.3919  -1.2633  -1.2559  -1.2312  -1.1875  -1.1509
 -1.1148  -1.0871  -1.0479  -0.9957  -0.9883  -0.9818  -0.9556  -0.9497
 -0.8971  -0.8891  -0.8777  -0.8610  -0.7939  -0.7783  -0.7718  -0.7622
 -0.7411  -0.7169  -0.7024  -0.6897  -0.6787  -0.6745  -0.6676  -0.6578
 -0.6481  -0.6462  -0.6384  -0.6318  -0.6313  -0.6283  -0.6232  -0.6054
 -0.5893  -0.5719  -0.5648  -0.5596  -0.5578  -0.5522  -0.5503  -0.5481
 -0.5480  -0.5432  -0.5195  -0.5154  -0.5100  -0.4849  -0.4750  -0.4642
 -0.4578  -0.4510  -0.4432  -0.4355  -0.4143  -0.4080  -0.3553  -0.3506
 -0.3304  -0.2800

          Ground-State Mulliken Net Atomic Charges

     Atom                 Charge (a.u.)
  ----------------------------------------
      1 C                    -0.084589
      2 C                    -0.029845
      3 C                    -0.109506
      4 C                    -0.127185
      5 H                     0.198987
      6 C                     0.020108
      7 C                     0.124520
      8 C                    -0.058778
      9 C                    -0.174511
     10 C                    -0.186007
     11 C                     0.234198
     12 H                     0.182466
     13 C                     0.343650
     14 C                     0.349664
     15 N                    -0.090016
     16 C                     0.357930
     17 C                     0.374303
     18 N                    -0.088028
     19 O                    -0.493520
     20 O                    -0.505939
     21 O                    -0.501179
     22 O                    -0.477597
     23 C                    -0.204644
     24 H                     0.139477
     25 H                     0.109470
     26 H                     0.109362
     27 C                    -0.198087
     28 H                     0.134064
     29 H                     0.111564
     30 H                     0.111482
     31 C                    -0.059662
     32 S                     0.003384
     33 C                    -0.231367
     34 C                    -0.168775
     35 C                    -0.199689
     36 H                     0.192586
     37 H                     0.190497
     38 H                     0.212863
     39 H                     0.137873
     40 H                     0.138250
     41 H                     0.212223
  ----------------------------------------
  Sum of atomic charges =     0.000000

                    Cartesian Multipole Moments
 -----------------------------------------------------------------
    Charge (ESU x 10^10)
                 0.0000
    Dipole Moment (Debye)
         X       1.7816      Y       1.7762      Z      -1.6954
       Tot       3.0337
    Quadrupole Moments (Debye-Ang)
        XX    -169.9218     XY      -2.6776     YY    -177.3417
        XZ      14.1703     YZ       7.2825     ZZ    -181.0519

 Total job time:  293.08s(wall), 9070.34s(cpu)
        *  Thank you very much for using Q-Chem.  Have a nice day.  *
