 Q-Chem 5.4, Q-Chem, Inc., Pleasanton, CA (2021)
 Q-Chem 5.4.0 for Intel X86 EM64T Linux

User input:
--------------------------------------------------------------
$molecule
0 1
C	0.221766	-6.741404	-0.129743
C	1.352515	-6.155638	-0.782726
C	-0.717339	-5.791452	0.411926
C	1.593885	-4.803786	-0.921816
H	2.112819	-6.821518	-1.221908
C	-0.464360	-4.378638	0.266682
C	0.688053	-3.838032	-0.398255
C	-1.369108	-3.413062	0.789694
C	0.939002	-2.426473	-0.542349
C	-1.130409	-2.059348	0.652589
C	-0.000000	-1.478216	-0.000000
H	-1.891446	-1.394783	1.092453
C	-1.967519	-6.187987	1.131595
C	-2.608118	-3.798164	1.504912
N	-2.819813	-5.170003	1.625174
C	2.836188	-4.424987	-1.639129
C	2.189558	-2.036627	-1.263477
N	3.042237	-3.049156	-1.756898
O	-2.307845	-7.353131	1.324787
O	-3.407213	-2.986854	1.967354
O	3.625890	-5.248946	-2.095892
O	2.547850	-0.878829	-1.468685
C	-4.043674	-5.563799	2.330564
H	-4.083407	-6.664085	2.352178
H	-4.925490	-5.147101	1.807263
H	-4.031877	-5.148785	3.356568
C	4.247206	-2.587487	-2.452080
H	4.803187	-3.483329	-2.774302
H	4.860536	-1.964972	-1.773301
H	3.966607	-1.962932	-3.321351
C	0.000000	0.000000	0.000000
S	0.271091	0.745405	1.580530
C	0.831198	2.284363	0.904911
C	0.341175	0.937861	-0.985400
C	0.792631	2.178516	-0.493528
H	0.260601	0.716417	-2.059934
H	1.093860	3.006347	-1.152593
H	1.132330	3.111961	1.556025
H	0.578191	-7.361589	0.701693
H	-0.319578	-7.361192	-0.854838
H	0.539540	-1.478831	0.935572
$end

$rem
JOBTYPE		SP
EXCHANGE	HF
CORRELATION	pRIMP2
BASIS		cc-pvtz
METHOD		rimp2
AUX_BASIS	rimp2-cc-pvtz
SOLVENT_METHOD	PCM
PURECART	11111
SYMMETRY	false
MEM_TOTAL	110000
SCF_CONVERGENCE = 6
THRESH=10
GUI = 2
$end

$solvent
dielectric 4.90
$end
--------------------------------------------------------------

             Standard Nuclear Orientation (Angstroms)
    I     Atom           X                Y                Z
 ----------------------------------------------------------------
    1      C       0.2217660000    -6.7414040000    -0.1297430000
    2      C       1.3525150000    -6.1556380000    -0.7827260000
    3      C      -0.7173390000    -5.7914520000     0.4119260000
    4      C       1.5938850000    -4.8037860000    -0.9218160000
    5      H       2.1128190000    -6.8215180000    -1.2219080000
    6      C      -0.4643600000    -4.3786380000     0.2666820000
    7      C       0.6880530000    -3.8380320000    -0.3982550000
    8      C      -1.3691080000    -3.4130620000     0.7896940000
    9      C       0.9390020000    -2.4264730000    -0.5423490000
   10      C      -1.1304090000    -2.0593480000     0.6525890000
   11      C       0.0000000000    -1.4782160000     0.0000000000
   12      H      -1.8914460000    -1.3947830000     1.0924530000
   13      C      -1.9675190000    -6.1879870000     1.1315950000
   14      C      -2.6081180000    -3.7981640000     1.5049120000
   15      N      -2.8198130000    -5.1700030000     1.6251740000
   16      C       2.8361880000    -4.4249870000    -1.6391290000
   17      C       2.1895580000    -2.0366270000    -1.2634770000
   18      N       3.0422370000    -3.0491560000    -1.7568980000
   19      O      -2.3078450000    -7.3531310000     1.3247870000
   20      O      -3.4072130000    -2.9868540000     1.9673540000
   21      O       3.6258900000    -5.2489460000    -2.0958920000
   22      O       2.5478500000    -0.8788290000    -1.4686850000
   23      C      -4.0436740000    -5.5637990000     2.3305640000
   24      H      -4.0834070000    -6.6640850000     2.3521780000
   25      H      -4.9254900000    -5.1471010000     1.8072630000
   26      H      -4.0318770000    -5.1487850000     3.3565680000
   27      C       4.2472060000    -2.5874870000    -2.4520800000
   28      H       4.8031870000    -3.4833290000    -2.7743020000
   29      H       4.8605360000    -1.9649720000    -1.7733010000
   30      H       3.9666070000    -1.9629320000    -3.3213510000
   31      C       0.0000000000     0.0000000000     0.0000000000
   32      S       0.2710910000     0.7454050000     1.5805300000
   33      C       0.8311980000     2.2843630000     0.9049110000
   34      C       0.3411750000     0.9378610000    -0.9854000000
   35      C       0.7926310000     2.1785160000    -0.4935280000
   36      H       0.2606010000     0.7164170000    -2.0599340000
   37      H       1.0938600000     3.0063470000    -1.1525930000
   38      H       1.1323300000     3.1119610000     1.5560250000
   39      H       0.5781910000    -7.3615890000     0.7016930000
   40      H      -0.3195780000    -7.3611920000    -0.8548380000
   41      H       0.5395400000    -1.4788310000     0.9355720000
 ----------------------------------------------------------------

   11   -1571.7359078357      5.67e-07  Convergence criterion met
 Total energy in the final basis set =    -1571.7359078357
        RIMP2         total energy =     -1576.3925821871 a.u.

                    Orbital Energies (a.u.)
 --------------------------------------------------------------

 Alpha MOs
 -- Occupied --
-91.9912 -20.5504 -20.5442 -20.5411 -20.5399 -15.6265 -15.6207 -11.3926
-11.3849 -11.3830 -11.3785 -11.3080 -11.3070 -11.3046 -11.3042 -11.2961
-11.2887 -11.2872 -11.2846 -11.2683 -11.2678 -11.2638 -11.2629 -11.2590
-11.2537 -11.2523 -11.2500  -8.9912  -6.6720  -6.6715  -6.6709  -1.4189
 -1.4117  -1.3968  -1.3908  -1.2617  -1.2549  -1.2296  -1.1869  -1.1519
 -1.1133  -1.0862  -1.0461  -0.9959  -0.9874  -0.9840  -0.9547  -0.9503
 -0.8954  -0.8864  -0.8764  -0.8597  -0.7925  -0.7752  -0.7713  -0.7680
 -0.7402  -0.7153  -0.7031  -0.6906  -0.6762  -0.6710  -0.6668  -0.6568
 -0.6467  -0.6430  -0.6376  -0.6312  -0.6304  -0.6264  -0.6224  -0.6046
 -0.5849  -0.5737  -0.5662  -0.5606  -0.5563  -0.5511  -0.5494  -0.5473
 -0.5468  -0.5435  -0.5226  -0.5146  -0.5074  -0.4809  -0.4743  -0.4682
 -0.4567  -0.4508  -0.4423  -0.4342  -0.4130  -0.4071  -0.3541  -0.3518
 -0.3283  -0.2852

          Ground-State Mulliken Net Atomic Charges

     Atom                 Charge (a.u.)
  ----------------------------------------
      1 C                    -0.085006
      2 C                    -0.029879
      3 C                    -0.113516
      4 C                    -0.123481
      5 H                     0.198493
      6 C                     0.010385
      7 C                     0.123394
      8 C                    -0.064198
      9 C                    -0.143433
     10 C                    -0.178716
     11 C                     0.233496
     12 H                     0.194108
     13 C                     0.343904
     14 C                     0.348248
     15 N                    -0.089460
     16 C                     0.357072
     17 C                     0.360385
     18 N                    -0.089103
     19 O                    -0.495070
     20 O                    -0.507467
     21 O                    -0.501908
     22 O                    -0.470701
     23 C                    -0.204838
     24 H                     0.139321
     25 H                     0.109061
     26 H                     0.109054
     27 C                    -0.197520
     28 H                     0.133430
     29 H                     0.111547
     30 H                     0.110743
     31 C                    -0.086010
     32 S                     0.007675
     33 C                    -0.209822
     34 C                    -0.152996
     35 C                    -0.200212
     36 H                     0.182409
     37 H                     0.189835
     38 H                     0.213116
     39 H                     0.137195
     40 H                     0.137514
     41 H                     0.192950
  ----------------------------------------
  Sum of atomic charges =     0.000000

                    Cartesian Multipole Moments
 -----------------------------------------------------------------
    Charge (ESU x 10^10)
                 0.0000
    Dipole Moment (Debye)
         X       2.0605      Y       2.4886      Z      -0.9843
       Tot       3.3775
    Quadrupole Moments (Debye-Ang)
        XX    -186.3999     XY      -4.5638     YY    -179.6114
        XZ      14.7344     YZ       3.9752     ZZ    -164.6433

 Total job time:  290.00s(wall), 8931.07s(cpu)
        *  Thank you very much for using Q-Chem.  Have a nice day.  *
