 Q-Chem 5.4, Q-Chem, Inc., Pleasanton, CA (2021)
 Q-Chem 5.4.0 for Intel X86 EM64T Linux

User input:
--------------------------------------------------------------
$molecule
0 1
C	-0.240927	-6.741404	0.089263
C	-1.467886	-6.155638	0.535973
C	0.777972	-5.791452	-0.281103
C	-1.729742	-4.803786	0.631036
H	-2.292903	-6.821518	0.836458
C	0.503614	-4.378638	-0.181995
C	-0.746756	-3.838032	0.272725
C	1.485437	-3.413062	-0.539954
C	-1.018915	-2.426473	0.371053
C	1.226557	-2.059348	-0.446381
C	-0.000000	-1.478216	-0.000000
H	2.052413	-1.394783	-0.747410
C	2.134128	-6.187987	-0.772747
C	2.829820	-3.798164	-1.029154
N	3.059182	-5.170003	-1.110828
C	-3.077731	-4.424987	1.121728
C	-2.375694	-2.036627	0.864069
N	-3.301101	-3.049156	1.201928
O	2.502830	-7.353131	-0.903908
O	3.697078	-2.986854	-1.345809
O	-3.934752	-5.248946	1.434422
O	-2.764177	-0.878829	1.003943
C	4.386939	-5.563799	-1.592981
H	4.429822	-6.664085	-1.607367
H	5.164489	-5.147101	-0.924504
H	4.553486	-5.148785	-2.605446
C	-4.608481	-2.587487	1.677308
H	-5.211969	-3.483329	1.898089
H	-5.094624	-1.964972	0.902337
H	-4.483092	-1.962932	2.582098
C	0.000000	0.000000	0.000000
S	0.607475	0.509994	1.580530
C	1.862020	1.562717	0.904911
C	0.764397	0.641624	-0.985400
C	1.775697	1.490335	-0.493528
H	0.583895	0.490135	-2.059934
H	2.450484	2.056643	-1.152593
H	2.536607	2.128872	1.556025
H	-0.447559	-7.361589	-0.791434
H	0.166282	-7.361192	0.897345
H	-0.368883	-1.478831	-1.015049
$end

$rem
JOBTYPE		SP
EXCHANGE	HF
CORRELATION	pRIMP2
BASIS		cc-pvtz
METHOD		rimp2
AUX_BASIS	rimp2-cc-pvtz
SOLVENT_METHOD	PCM
PURECART	11111
SYMMETRY	false
MEM_TOTAL	110000
SCF_CONVERGENCE = 6
THRESH=10
GUI = 2
$end

$solvent
dielectric 4.90
$end
--------------------------------------------------------------

             Standard Nuclear Orientation (Angstroms)
    I     Atom           X                Y                Z
 ----------------------------------------------------------------
    1      C      -0.2409270000    -6.7414040000     0.0892630000
    2      C      -1.4678860000    -6.1556380000     0.5359730000
    3      C       0.7779720000    -5.7914520000    -0.2811030000
    4      C      -1.7297420000    -4.8037860000     0.6310360000
    5      H      -2.2929030000    -6.8215180000     0.8364580000
    6      C       0.5036140000    -4.3786380000    -0.1819950000
    7      C      -0.7467560000    -3.8380320000     0.2727250000
    8      C       1.4854370000    -3.4130620000    -0.5399540000
    9      C      -1.0189150000    -2.4264730000     0.3710530000
   10      C       1.2265570000    -2.0593480000    -0.4463810000
   11      C       0.0000000000    -1.4782160000     0.0000000000
   12      H       2.0524130000    -1.3947830000    -0.7474100000
   13      C       2.1341280000    -6.1879870000    -0.7727470000
   14      C       2.8298200000    -3.7981640000    -1.0291540000
   15      N       3.0591820000    -5.1700030000    -1.1108280000
   16      C      -3.0777310000    -4.4249870000     1.1217280000
   17      C      -2.3756940000    -2.0366270000     0.8640690000
   18      N      -3.3011010000    -3.0491560000     1.2019280000
   19      O       2.5028300000    -7.3531310000    -0.9039080000
   20      O       3.6970780000    -2.9868540000    -1.3458090000
   21      O      -3.9347520000    -5.2489460000     1.4344220000
   22      O      -2.7641770000    -0.8788290000     1.0039430000
   23      C       4.3869390000    -5.5637990000    -1.5929810000
   24      H       4.4298220000    -6.6640850000    -1.6073670000
   25      H       5.1644890000    -5.1471010000    -0.9245040000
   26      H       4.5534860000    -5.1487850000    -2.6054460000
   27      C      -4.6084810000    -2.5874870000     1.6773080000
   28      H      -5.2119690000    -3.4833290000     1.8980890000
   29      H      -5.0946240000    -1.9649720000     0.9023370000
   30      H      -4.4830920000    -1.9629320000     2.5820980000
   31      C       0.0000000000     0.0000000000     0.0000000000
   32      S       0.6074750000     0.5099940000     1.5805300000
   33      C       1.8620200000     1.5627170000     0.9049110000
   34      C       0.7643970000     0.6416240000    -0.9854000000
   35      C       1.7756970000     1.4903350000    -0.4935280000
   36      H       0.5838950000     0.4901350000    -2.0599340000
   37      H       2.4504840000     2.0566430000    -1.1525930000
   38      H       2.5366070000     2.1288720000     1.5560250000
   39      H      -0.4475590000    -7.3615890000    -0.7914340000
   40      H       0.1662820000    -7.3611920000     0.8973450000
   41      H      -0.3688830000    -1.4788310000    -1.0150490000
 ----------------------------------------------------------------

   11   -1571.7072979941      5.65e-07  Convergence criterion met
 Total energy in the final basis set =    -1571.7072979941
        RIMP2         total energy =     -1576.3728474792 a.u.

                    Orbital Energies (a.u.)
 --------------------------------------------------------------

 Alpha MOs
 -- Occupied --
-91.9887 -20.5520 -20.5435 -20.5401 -20.5396 -15.6260 -15.6203 -11.3924
-11.3841 -11.3820 -11.3781 -11.3058 -11.3050 -11.3030 -11.3018 -11.2986
-11.2944 -11.2855 -11.2812 -11.2693 -11.2664 -11.2661 -11.2621 -11.2621
-11.2590 -11.2553 -11.2511  -8.9889  -6.6697  -6.6690  -6.6686  -1.4187
 -1.4111  -1.3964  -1.3903  -1.2611  -1.2544  -1.2306  -1.1916  -1.1526
 -1.1122  -1.0842  -1.0448  -0.9990  -0.9915  -0.9866  -0.9545  -0.9489
 -0.8954  -0.8859  -0.8747  -0.8573  -0.7938  -0.7766  -0.7705  -0.7665
 -0.7418  -0.7165  -0.7038  -0.6908  -0.6822  -0.6711  -0.6658  -0.6563
 -0.6458  -0.6428  -0.6368  -0.6326  -0.6296  -0.6261  -0.6205  -0.6045
 -0.5833  -0.5781  -0.5723  -0.5607  -0.5565  -0.5507  -0.5499  -0.5470
 -0.5456  -0.5428  -0.5251  -0.5089  -0.5017  -0.4808  -0.4743  -0.4601
 -0.4564  -0.4503  -0.4416  -0.4330  -0.4126  -0.4064  -0.3592  -0.3490
 -0.3329  -0.2854

          Ground-State Mulliken Net Atomic Charges

     Atom                 Charge (a.u.)
  ----------------------------------------
      1 C                    -0.085812
      2 C                    -0.033944
      3 C                    -0.112423
      4 C                    -0.119745
      5 H                     0.197948
      6 C                     0.018353
      7 C                     0.118610
      8 C                    -0.097499
      9 C                    -0.204933
     10 C                    -0.132499
     11 C                     0.201894
     12 H                     0.196093
     13 C                     0.342156
     14 C                     0.344224
     15 N                    -0.089225
     16 C                     0.355071
     17 C                     0.353023
     18 N                    -0.091009
     19 O                    -0.496772
     20 O                    -0.510481
     21 O                    -0.502074
     22 O                    -0.470449
     23 C                    -0.205402
     24 H                     0.139411
     25 H                     0.108946
     26 H                     0.108407
     27 C                    -0.198142
     28 H                     0.132928
     29 H                     0.111358
     30 H                     0.111800
     31 C                    -0.045686
     32 S                     0.023678
     33 C                    -0.160446
     34 C                    -0.167589
     35 C                    -0.215415
     36 H                     0.197555
     37 H                     0.195971
     38 H                     0.214702
     39 H                     0.136061
     40 H                     0.136451
     41 H                     0.194907
  ----------------------------------------
  Sum of atomic charges =     0.000000

                    Cartesian Multipole Moments
 -----------------------------------------------------------------
    Charge (ESU x 10^10)
                 0.0000
    Dipole Moment (Debye)
         X       0.9272      Y       2.7055      Z      -1.4145
       Tot       3.1907
    Quadrupole Moments (Debye-Ang)
        XX    -185.3834     XY      15.4321     YY    -187.0721
        XZ      11.7541     YZ      -1.3347     ZZ    -159.8239

 Total job time:  308.20s(wall), 9200.65s(cpu)
        *  Thank you very much for using Q-Chem.  Have a nice day.  *
