 Q-Chem 5.4, Q-Chem, Inc., Pleasanton, CA (2021)
 Q-Chem 5.4.0 for Intel X86 EM64T Linux

User input:
--------------------------------------------------------------
$molecule
0 1
C	1.169177	-6.639243	-0.256927
C	1.067337	-6.062399	-1.562675
C	1.003773	-5.703803	0.827197
C	0.832816	-4.731044	-1.841253
H	1.182777	-6.718195	-2.440709
C	0.759135	-4.312330	0.535488
C	0.665608	-3.779876	-0.794999
C	0.592024	-3.361324	1.580529
C	0.421169	-2.389641	-1.084374
C	0.357557	-2.028070	1.305258
C	0.256690	-1.455759	0.000000
H	0.242565	-1.373530	2.184267
C	1.070820	-6.094632	2.269719
C	0.658788	-3.740595	3.011152
N	0.895334	-5.091887	3.254617
C	0.766979	-4.358010	-3.275775
C	0.354224	-2.005586	-2.527951
N	0.529086	-3.002902	-3.513104
O	1.270336	-7.242571	2.661046
O	0.518831	-2.941447	3.934410
O	0.909352	-5.169576	-4.188059
O	0.154583	-0.865129	-2.940845
C	0.962688	-5.479882	4.667206
H	1.152619	-6.563651	4.712423
H	0.009812	-5.224773	5.169231
H	1.771476	-4.915854	5.169992
C	0.449351	-2.548170	-4.904229
H	0.603867	-3.430587	-5.546833
H	1.222168	-1.779783	-5.095998
H	-0.538644	-2.088191	-5.095858
C	0.000000	0.000000	0.000000
S	-0.000201	0.793171	1.580530
C	-0.000228	2.430885	0.904911
C	-0.000168	0.997990	-0.985400
C	-0.000267	2.318231	-0.493528
H	-0.000145	0.762343	-2.059934
H	-0.000339	3.199164	-1.152593
H	-0.000311	3.311566	1.556025
H	2.161481	-7.094026	-0.149881
H	0.391832	-7.405660	-0.150656
H	1.320388	-1.268824	0.000531
$end

$rem
JOBTYPE		SP
EXCHANGE	HF
CORRELATION	pRIMP2
BASIS		cc-pvtz
METHOD		rimp2
AUX_BASIS	rimp2-cc-pvtz
SOLVENT_METHOD	PCM
PURECART	11111
SYMMETRY	false
MEM_TOTAL	110000
SCF_CONVERGENCE = 6
THRESH=10
GUI = 2
$end

$solvent
dielectric 4.90
$end
--------------------------------------------------------------

             Standard Nuclear Orientation (Angstroms)
    I     Atom           X                Y                Z
 ----------------------------------------------------------------
    1      C       1.1691770000    -6.6392430000    -0.2569270000
    2      C       1.0673370000    -6.0623990000    -1.5626750000
    3      C       1.0037730000    -5.7038030000     0.8271970000
    4      C       0.8328160000    -4.7310440000    -1.8412530000
    5      H       1.1827770000    -6.7181950000    -2.4407090000
    6      C       0.7591350000    -4.3123300000     0.5354880000
    7      C       0.6656080000    -3.7798760000    -0.7949990000
    8      C       0.5920240000    -3.3613240000     1.5805290000
    9      C       0.4211690000    -2.3896410000    -1.0843740000
   10      C       0.3575570000    -2.0280700000     1.3052580000
   11      C       0.2566900000    -1.4557590000     0.0000000000
   12      H       0.2425650000    -1.3735300000     2.1842670000
   13      C       1.0708200000    -6.0946320000     2.2697190000
   14      C       0.6587880000    -3.7405950000     3.0111520000
   15      N       0.8953340000    -5.0918870000     3.2546170000
   16      C       0.7669790000    -4.3580100000    -3.2757750000
   17      C       0.3542240000    -2.0055860000    -2.5279510000
   18      N       0.5290860000    -3.0029020000    -3.5131040000
   19      O       1.2703360000    -7.2425710000     2.6610460000
   20      O       0.5188310000    -2.9414470000     3.9344100000
   21      O       0.9093520000    -5.1695760000    -4.1880590000
   22      O       0.1545830000    -0.8651290000    -2.9408450000
   23      C       0.9626880000    -5.4798820000     4.6672060000
   24      H       1.1526190000    -6.5636510000     4.7124230000
   25      H       0.0098120000    -5.2247730000     5.1692310000
   26      H       1.7714760000    -4.9158540000     5.1699920000
   27      C       0.4493510000    -2.5481700000    -4.9042290000
   28      H       0.6038670000    -3.4305870000    -5.5468330000
   29      H       1.2221680000    -1.7797830000    -5.0959980000
   30      H      -0.5386440000    -2.0881910000    -5.0958580000
   31      C       0.0000000000     0.0000000000     0.0000000000
   32      S      -0.0002010000     0.7931710000     1.5805300000
   33      C      -0.0002280000     2.4308850000     0.9049110000
   34      C      -0.0001680000     0.9979900000    -0.9854000000
   35      C      -0.0002670000     2.3182310000    -0.4935280000
   36      H      -0.0001450000     0.7623430000    -2.0599340000
   37      H      -0.0003390000     3.1991640000    -1.1525930000
   38      H      -0.0003110000     3.3115660000     1.5560250000
   39      H       2.1614810000    -7.0940260000    -0.1498810000
   40      H       0.3918320000    -7.4056600000    -0.1506560000
   41      H       1.3203880000    -1.2688240000     0.0005310000
 ----------------------------------------------------------------

   11   -1571.7321684924      5.93e-07  Convergence criterion met
 Total energy in the final basis set =    -1571.7321684924
        RIMP2         total energy =     -1576.3909657594 a.u.

                    Orbital Energies (a.u.)
 --------------------------------------------------------------

 Alpha MOs
 -- Occupied --
-91.9893 -20.5541 -20.5461 -20.5428 -20.5417 -15.6295 -15.6221 -11.3984
-11.3869 -11.3846 -11.3803 -11.3106 -11.3099 -11.3068 -11.3058 -11.2982
-11.2982 -11.2930 -11.2739 -11.2712 -11.2695 -11.2678 -11.2645 -11.2598
-11.2540 -11.2460 -11.2344  -8.9893  -6.6702  -6.6697  -6.6690  -1.4244
 -1.4132  -1.4005  -1.3924  -1.2651  -1.2565  -1.2324  -1.1881  -1.1501
 -1.1158  -1.0878  -1.0493  -0.9958  -0.9891  -0.9816  -0.9562  -0.9494
 -0.8986  -0.8914  -0.8787  -0.8620  -0.7954  -0.7815  -0.7733  -0.7586
 -0.7401  -0.7212  -0.7024  -0.6899  -0.6831  -0.6748  -0.6689  -0.6586
 -0.6497  -0.6477  -0.6388  -0.6327  -0.6320  -0.6300  -0.6245  -0.6056
 -0.5933  -0.5714  -0.5637  -0.5609  -0.5576  -0.5527  -0.5519  -0.5494
 -0.5486  -0.5429  -0.5169  -0.5151  -0.5121  -0.4869  -0.4745  -0.4593
 -0.4582  -0.4498  -0.4433  -0.4369  -0.4164  -0.4086  -0.3580  -0.3495
 -0.3320  -0.2781

          Ground-State Mulliken Net Atomic Charges

     Atom                 Charge (a.u.)
  ----------------------------------------
      1 C                    -0.083826
      2 C                    -0.031452
      3 C                    -0.103127
      4 C                    -0.122398
      5 H                     0.199304
      6 C                     0.026069
      7 C                     0.115780
      8 C                    -0.039953
      9 C                    -0.202185
     10 C                    -0.166253
     11 C                     0.169305
     12 H                     0.184361
     13 C                     0.342017
     14 C                     0.347638
     15 N                    -0.090074
     16 C                     0.358516
     17 C                     0.386923
     18 N                    -0.087386
     19 O                    -0.493013
     20 O                    -0.505974
     21 O                    -0.500265
     22 O                    -0.481785
     23 C                    -0.204705
     24 H                     0.139572
     25 H                     0.109756
     26 H                     0.109527
     27 C                    -0.198665
     28 H                     0.134479
     29 H                     0.111694
     30 H                     0.112437
     31 C                     0.001673
     32 S                    -0.013585
     33 C                    -0.238943
     34 C                    -0.186939
     35 C                    -0.231835
     36 H                     0.228378
     37 H                     0.190014
     38 H                     0.215294
     39 H                     0.138458
     40 H                     0.138726
     41 H                     0.222444
  ----------------------------------------
  Sum of atomic charges =     0.000000

                    Cartesian Multipole Moments
 -----------------------------------------------------------------
    Charge (ESU x 10^10)
                -0.0000
    Dipole Moment (Debye)
         X       0.9505      Y       1.4424      Z      -2.2824
       Tot       2.8624
    Quadrupole Moments (Debye-Ang)
        XX    -162.7175     XY       2.6732     YY    -175.3433
        XZ      -1.6551     YZ       9.0871     ZZ    -188.4910

 Total job time:  331.56s(wall), 10219.58s(cpu)
        *  Thank you very much for using Q-Chem.  Have a nice day.  *
