 Q-Chem 5.4, Q-Chem, Inc., Pleasanton, CA (2021)
 Q-Chem 5.4.0 for Intel X86 EM64T Linux

User input:
--------------------------------------------------------------
$molecule
0 1
C	-0.127184	-6.741404	0.223244
C	-0.779949	-6.155638	1.354118
C	0.415271	-5.791452	-0.715408
C	-0.919437	-4.803786	1.595259
H	-1.218801	-6.821518	2.114613
C	0.268806	-4.378638	-0.463133
C	-0.396744	-3.838032	0.688925
C	0.790835	-3.413062	-1.368449
C	-0.542026	-2.426473	0.939189
C	0.652669	-2.059348	-1.130363
C	0.000000	-1.478216	0.000000
H	1.091814	-1.394783	-1.891815
C	1.138124	-6.187987	-1.963749
C	1.506241	-3.798164	-2.607351
N	1.629443	-5.170003	-2.817348
C	-1.636646	-4.424987	2.837621
C	-1.264474	-2.036627	2.188982
N	-1.756205	-3.049156	3.042637
O	1.336258	-7.353131	-2.301222
O	1.967056	-2.986854	-3.407386
O	-2.092167	-5.248946	3.628041
O	-1.472160	-0.878829	2.545844
C	2.336642	-5.563799	-4.040164
H	2.360245	-6.664085	-4.078749
H	3.361968	-5.147101	-4.027880
H	1.813424	-5.148785	-4.922811
C	-2.452149	-2.587487	4.247167
H	-2.772531	-3.483329	4.804209
H	-3.322697	-1.964972	3.965991
H	-1.774507	-1.962932	4.859678
C	0.000000	0.000000	0.000000
S	0.137535	0.781156	1.580530
C	0.421895	2.393994	0.904911
C	0.173134	0.982857	-0.985400
C	0.402294	2.283058	-0.493528
H	0.132237	0.750786	-2.059934
H	0.555196	3.150621	-1.152593
H	0.574741	3.261310	1.556025
H	-0.851574	-7.361589	-0.318588
H	0.704181	-7.361192	0.580522
H	-0.935042	-1.478831	-0.540459
$end

$rem
JOBTYPE		SP
EXCHANGE	HF
CORRELATION	pRIMP2
BASIS		cc-pvtz
METHOD		rimp2
AUX_BASIS	rimp2-cc-pvtz
SOLVENT_METHOD	PCM
PURECART	11111
SYMMETRY	false
MEM_TOTAL	110000
SCF_CONVERGENCE = 6
THRESH=10
GUI = 2
$end

$solvent
dielectric 4.90
$end
--------------------------------------------------------------

             Standard Nuclear Orientation (Angstroms)
    I     Atom           X                Y                Z
 ----------------------------------------------------------------
    1      C      -0.1271840000    -6.7414040000     0.2232440000
    2      C      -0.7799490000    -6.1556380000     1.3541180000
    3      C       0.4152710000    -5.7914520000    -0.7154080000
    4      C      -0.9194370000    -4.8037860000     1.5952590000
    5      H      -1.2188010000    -6.8215180000     2.1146130000
    6      C       0.2688060000    -4.3786380000    -0.4631330000
    7      C      -0.3967440000    -3.8380320000     0.6889250000
    8      C       0.7908350000    -3.4130620000    -1.3684490000
    9      C      -0.5420260000    -2.4264730000     0.9391890000
   10      C       0.6526690000    -2.0593480000    -1.1303630000
   11      C       0.0000000000    -1.4782160000     0.0000000000
   12      H       1.0918140000    -1.3947830000    -1.8918150000
   13      C       1.1381240000    -6.1879870000    -1.9637490000
   14      C       1.5062410000    -3.7981640000    -2.6073510000
   15      N       1.6294430000    -5.1700030000    -2.8173480000
   16      C      -1.6366460000    -4.4249870000     2.8376210000
   17      C      -1.2644740000    -2.0366270000     2.1889820000
   18      N      -1.7562050000    -3.0491560000     3.0426370000
   19      O       1.3362580000    -7.3531310000    -2.3012220000
   20      O       1.9670560000    -2.9868540000    -3.4073860000
   21      O      -2.0921670000    -5.2489460000     3.6280410000
   22      O      -1.4721600000    -0.8788290000     2.5458440000
   23      C       2.3366420000    -5.5637990000    -4.0401640000
   24      H       2.3602450000    -6.6640850000    -4.0787490000
   25      H       3.3619680000    -5.1471010000    -4.0278800000
   26      H       1.8134240000    -5.1487850000    -4.9228110000
   27      C      -2.4521490000    -2.5874870000     4.2471670000
   28      H      -2.7725310000    -3.4833290000     4.8042090000
   29      H      -3.3226970000    -1.9649720000     3.9659910000
   30      H      -1.7745070000    -1.9629320000     4.8596780000
   31      C       0.0000000000     0.0000000000     0.0000000000
   32      S       0.1375350000     0.7811560000     1.5805300000
   33      C       0.4218950000     2.3939940000     0.9049110000
   34      C       0.1731340000     0.9828570000    -0.9854000000
   35      C       0.4022940000     2.2830580000    -0.4935280000
   36      H       0.1322370000     0.7507860000    -2.0599340000
   37      H       0.5551960000     3.1506210000    -1.1525930000
   38      H       0.5747410000     3.2613100000     1.5560250000
   39      H      -0.8515740000    -7.3615890000    -0.3185880000
   40      H       0.7041810000    -7.3611920000     0.5805220000
   41      H      -0.9350420000    -1.4788310000    -0.5404590000
 ----------------------------------------------------------------

   11   -1571.7268649481      5.87e-07  Convergence criterion met
 Total energy in the final basis set =    -1571.7268649481
        RIMP2         total energy =     -1576.3893080707 a.u.

                    Orbital Energies (a.u.)
 --------------------------------------------------------------

 Alpha MOs
 -- Occupied --
-91.9775 -20.5528 -20.5454 -20.5423 -20.5413 -15.6284 -15.6220 -11.3961
-11.3862 -11.3842 -11.3799 -11.3114 -11.3098 -11.3076 -11.3056 -11.2983
-11.2964 -11.2915 -11.2702 -11.2694 -11.2684 -11.2658 -11.2637 -11.2599
-11.2537 -11.2500 -11.2427  -8.9773  -6.6579  -6.6572  -6.6566  -1.4238
 -1.4129  -1.3999  -1.3920  -1.2643  -1.2562  -1.2311  -1.1858  -1.1487
 -1.1153  -1.0869  -1.0483  -0.9941  -0.9887  -0.9780  -0.9558  -0.9493
 -0.8972  -0.8898  -0.8784  -0.8617  -0.7928  -0.7790  -0.7731  -0.7594
 -0.7349  -0.7188  -0.7024  -0.6910  -0.6834  -0.6756  -0.6677  -0.6582
 -0.6489  -0.6468  -0.6371  -0.6330  -0.6318  -0.6309  -0.6217  -0.6056
 -0.5871  -0.5738  -0.5640  -0.5618  -0.5592  -0.5527  -0.5518  -0.5489
 -0.5484  -0.5447  -0.5199  -0.5129  -0.5115  -0.4842  -0.4773  -0.4616
 -0.4558  -0.4451  -0.4381  -0.4314  -0.4117  -0.4081  -0.3548  -0.3402
 -0.3279  -0.2800

          Ground-State Mulliken Net Atomic Charges

     Atom                 Charge (a.u.)
  ----------------------------------------
      1 C                    -0.084364
      2 C                    -0.029325
      3 C                    -0.108566
      4 C                    -0.125499
      5 H                     0.199801
      6 C                     0.025805
      7 C                     0.128106
      8 C                    -0.091511
      9 C                    -0.172619
     10 C                    -0.162821
     11 C                     0.229169
     12 H                     0.192428
     13 C                     0.341828
     14 C                     0.349878
     15 N                    -0.090058
     16 C                     0.357649
     17 C                     0.370677
     18 N                    -0.091147
     19 O                    -0.493997
     20 O                    -0.507797
     21 O                    -0.500728
     22 O                    -0.471682
     23 C                    -0.204767
     24 H                     0.139626
     25 H                     0.109525
     26 H                     0.109067
     27 C                    -0.197533
     28 H                     0.133979
     29 H                     0.111815
     30 H                     0.112495
     31 C                    -0.044010
     32 S                     0.068816
     33 C                    -0.240807
     34 C                    -0.209601
     35 C                    -0.217564
     36 H                     0.182080
     37 H                     0.185937
     38 H                     0.206154
     39 H                     0.138190
     40 H                     0.138706
     41 H                     0.212666
  ----------------------------------------
  Sum of atomic charges =     0.000000

                    Cartesian Multipole Moments
 -----------------------------------------------------------------
    Charge (ESU x 10^10)
                 0.0000
    Dipole Moment (Debye)
         X      -1.3543      Y       1.1017      Z       0.0264
       Tot       1.7460
    Quadrupole Moments (Debye-Ang)
        XX    -170.3440     XY       7.3377     YY    -177.8765
        XZ      13.6792     YZ      -6.7365     ZZ    -180.1418

 Total job time:  317.20s(wall), 9230.35s(cpu)
        *  Thank you very much for using Q-Chem.  Have a nice day.  *
