 Q-Chem 5.4, Q-Chem, Inc., Pleasanton, CA (2021)
 Q-Chem 5.4.0 for Intel X86 EM64T Linux

User input:
--------------------------------------------------------------
$molecule
0 1
C	0.197767	-6.741404	0.164018
C	1.198109	-6.155638	1.003240
C	-0.632428	-5.791452	-0.533192
C	1.411364	-4.803786	1.182482
H	1.870845	-6.821518	1.567483
C	-0.409419	-4.378638	-0.345145
C	0.609565	-3.838032	0.510347
C	-1.210332	-3.413062	-1.016449
C	0.830799	-2.426473	0.696879
C	-0.999856	-2.059348	-0.839039
C	0.000000	-1.478216	0.000000
H	-1.673483	-1.394783	-1.403737
C	-1.736282	-6.187987	-1.461835
C	-2.306183	-3.798164	-1.936119
N	-2.491597	-5.170003	-2.093916
C	2.510310	-4.424987	2.104529
C	1.936153	-2.036627	1.625377
N	2.691451	-3.049156	2.257873
O	-2.034222	-7.353131	-1.715561
O	-3.014044	-2.986854	-2.528858
O	3.209622	-5.248946	2.690385
O	2.251529	-0.878829	1.891876
C	-3.573032	-5.563799	-3.002711
H	-3.606932	-6.664085	-3.032655
H	-3.382888	-5.147101	-4.010326
H	-4.533125	-5.148785	-2.640711
C	3.756832	-2.587487	3.152408
H	4.249778	-3.483329	3.564653
H	3.328759	-1.964972	3.960905
H	4.477709	-1.962932	2.591422
C	0.000000	0.000000	0.000000
S	0.068929	0.790170	1.580530
C	0.211639	2.421655	0.904911
C	0.086813	0.994207	-0.985400
C	0.201782	2.309433	-0.493528
H	0.066299	0.759454	-2.059934
H	0.278488	3.187020	-1.152593
H	0.288312	3.298992	1.556025
H	-0.461623	-7.361589	0.783314
H	0.693983	-7.361192	-0.592677
H	-0.694617	-1.478831	0.826987
$end

$rem
JOBTYPE		SP
EXCHANGE	HF
CORRELATION	pRIMP2
BASIS		cc-pvtz
METHOD		rimp2
AUX_BASIS	rimp2-cc-pvtz
SOLVENT_METHOD	PCM
PURECART	11111
SYMMETRY	false
MEM_TOTAL	110000
SCF_CONVERGENCE = 6
THRESH=10
GUI = 2
$end

$solvent
dielectric 4.90
$end
--------------------------------------------------------------

             Standard Nuclear Orientation (Angstroms)
    I     Atom           X                Y                Z
 ----------------------------------------------------------------
    1      C       0.1977670000    -6.7414040000     0.1640180000
    2      C       1.1981090000    -6.1556380000     1.0032400000
    3      C      -0.6324280000    -5.7914520000    -0.5331920000
    4      C       1.4113640000    -4.8037860000     1.1824820000
    5      H       1.8708450000    -6.8215180000     1.5674830000
    6      C      -0.4094190000    -4.3786380000    -0.3451450000
    7      C       0.6095650000    -3.8380320000     0.5103470000
    8      C      -1.2103320000    -3.4130620000    -1.0164490000
    9      C       0.8307990000    -2.4264730000     0.6968790000
   10      C      -0.9998560000    -2.0593480000    -0.8390390000
   11      C       0.0000000000    -1.4782160000     0.0000000000
   12      H      -1.6734830000    -1.3947830000    -1.4037370000
   13      C      -1.7362820000    -6.1879870000    -1.4618350000
   14      C      -2.3061830000    -3.7981640000    -1.9361190000
   15      N      -2.4915970000    -5.1700030000    -2.0939160000
   16      C       2.5103100000    -4.4249870000     2.1045290000
   17      C       1.9361530000    -2.0366270000     1.6253770000
   18      N       2.6914510000    -3.0491560000     2.2578730000
   19      O      -2.0342220000    -7.3531310000    -1.7155610000
   20      O      -3.0140440000    -2.9868540000    -2.5288580000
   21      O       3.2096220000    -5.2489460000     2.6903850000
   22      O       2.2515290000    -0.8788290000     1.8918760000
   23      C      -3.5730320000    -5.5637990000    -3.0027110000
   24      H      -3.6069320000    -6.6640850000    -3.0326550000
   25      H      -3.3828880000    -5.1471010000    -4.0103260000
   26      H      -4.5331250000    -5.1487850000    -2.6407110000
   27      C       3.7568320000    -2.5874870000     3.1524080000
   28      H       4.2497780000    -3.4833290000     3.5646530000
   29      H       3.3287590000    -1.9649720000     3.9609050000
   30      H       4.4777090000    -1.9629320000     2.5914220000
   31      C       0.0000000000     0.0000000000     0.0000000000
   32      S       0.0689290000     0.7901700000     1.5805300000
   33      C       0.2116390000     2.4216550000     0.9049110000
   34      C       0.0868130000     0.9942070000    -0.9854000000
   35      C       0.2017820000     2.3094330000    -0.4935280000
   36      H       0.0662990000     0.7594540000    -2.0599340000
   37      H       0.2784880000     3.1870200000    -1.1525930000
   38      H       0.2883120000     3.2989920000     1.5560250000
   39      H      -0.4616230000    -7.3615890000     0.7833140000
   40      H       0.6939830000    -7.3611920000    -0.5926770000
   41      H      -0.6946170000    -1.4788310000     0.8269870000
 ----------------------------------------------------------------

   11   -1571.7361829671      5.78e-07  Convergence criterion met
 Total energy in the final basis set =    -1571.7361829671
        RIMP2         total energy =     -1576.3947490297 a.u.

                    Orbital Energies (a.u.)
 --------------------------------------------------------------

 Alpha MOs
 -- Occupied --
-91.9832 -20.5497 -20.5444 -20.5421 -20.5409 -15.6266 -15.6216 -11.3928
-11.3850 -11.3840 -11.3795 -11.3094 -11.3088 -11.3056 -11.3050 -11.2969
-11.2934 -11.2898 -11.2785 -11.2697 -11.2684 -11.2650 -11.2627 -11.2597
-11.2531 -11.2517 -11.2457  -8.9832  -6.6639  -6.6634  -6.6629  -1.4197
 -1.4126  -1.3974  -1.3917  -1.2621  -1.2557  -1.2300  -1.1857  -1.1505
 -1.1144  -1.0865  -1.0471  -0.9944  -0.9880  -0.9808  -0.9551  -0.9502
 -0.8960  -0.8879  -0.8772  -0.8606  -0.7925  -0.7763  -0.7737  -0.7658
 -0.7334  -0.7178  -0.7027  -0.6909  -0.6797  -0.6707  -0.6678  -0.6573
 -0.6473  -0.6409  -0.6390  -0.6326  -0.6312  -0.6278  -0.6227  -0.6051
 -0.5853  -0.5741  -0.5649  -0.5617  -0.5581  -0.5514  -0.5508  -0.5482
 -0.5468  -0.5437  -0.5171  -0.5156  -0.5100  -0.4831  -0.4751  -0.4615
 -0.4562  -0.4493  -0.4428  -0.4349  -0.4127  -0.4078  -0.3533  -0.3429
 -0.3279  -0.2857

          Ground-State Mulliken Net Atomic Charges

     Atom                 Charge (a.u.)
  ----------------------------------------
      1 C                    -0.084889
      2 C                    -0.029591
      3 C                    -0.109613
      4 C                    -0.124659
      5 H                     0.199075
      6 C                     0.018005
      7 C                     0.118620
      8 C                    -0.103880
      9 C                    -0.189626
     10 C                    -0.129969
     11 C                     0.251334
     12 H                     0.195369
     13 C                     0.343487
     14 C                     0.352057
     15 N                    -0.090095
     16 C                     0.356364
     17 C                     0.370771
     18 N                    -0.090069
     19 O                    -0.493985
     20 O                    -0.507396
     21 O                    -0.501854
     22 O                    -0.466591
     23 C                    -0.204595
     24 H                     0.139538
     25 H                     0.109128
     26 H                     0.109145
     27 C                    -0.197206
     28 H                     0.133231
     29 H                     0.111229
     30 H                     0.111804
     31 C                    -0.085721
     32 S                     0.039489
     33 C                    -0.216834
     34 C                    -0.177764
     35 C                    -0.215445
     36 H                     0.191104
     37 H                     0.188736
     38 H                     0.210222
     39 H                     0.137955
     40 H                     0.137998
     41 H                     0.195121
  ----------------------------------------
  Sum of atomic charges =     0.000000

                    Cartesian Multipole Moments
 -----------------------------------------------------------------
    Charge (ESU x 10^10)
                 0.0000
    Dipole Moment (Debye)
         X       0.6333      Y       1.8832      Z       0.5427
       Tot       2.0596
    Quadrupole Moments (Debye-Ang)
        XX    -182.0159     XY      -4.6512     YY    -177.8185
        XZ     -15.7135     YZ      -5.7909     ZZ    -169.5559

 Total job time:  293.65s(wall), 8660.23s(cpu)
        *  Thank you very much for using Q-Chem.  Have a nice day.  *
