 Q-Chem 5.4, Q-Chem, Inc., Pleasanton, CA (2021)
 Q-Chem 5.4.0 for Intel X86 EM64T Linux

User input:
--------------------------------------------------------------
$molecule
0 1
C	0.046070	-6.741404	0.252767
C	0.272935	-6.155638	1.538656
C	-0.141739	-5.791452	-0.814966
C	0.321083	-4.803786	1.813042
H	0.425592	-6.821518	2.403318
C	-0.091779	-4.378638	-0.527566
C	0.138909	-3.838032	0.782769
C	-0.273808	-3.413062	-1.556632
C	0.188483	-2.426473	1.067868
C	-0.226610	-2.059348	-1.285436
C	-0.000000	-1.478216	-0.000000
H	-0.379657	-1.394783	-2.151019
C	-0.390420	-6.187987	-2.235891
C	-0.522125	-3.798164	-2.965540
N	-0.562731	-5.170003	-3.205600
C	0.570244	-4.424987	3.225760
C	0.438407	-2.036627	2.489646
N	0.610438	-3.049156	3.459662
O	-0.455563	-7.353131	-2.621768
O	-0.683373	-2.986854	-3.874608
O	0.729367	-5.248946	4.124059
O	0.508697	-0.878829	2.896516
C	-0.806996	-5.563799	-4.596910
H	-0.813717	-6.664085	-4.641640
H	-0.013655	-5.147101	-5.246567
H	-1.775159	-5.148785	-4.936739
C	0.851572	-2.587487	4.829729
H	0.964204	-3.483329	5.462387
H	0.003956	-1.964972	5.173914
H	1.764390	-1.962932	4.863360
C	0.000000	0.000000	0.000000
S	0.335026	0.718942	1.580530
C	1.027130	2.203226	0.904911
C	0.421617	0.904557	-0.985400
C	0.979485	2.101144	-0.493528
H	0.322049	0.690978	-2.059934
H	1.351718	2.899571	-1.152593
H	1.399246	3.001430	1.556025
H	-0.857128	-7.361589	0.303328
H	0.912587	-7.361192	-0.007933
H	-1.063684	-1.478831	0.187017
$end

$rem
JOBTYPE		SP
EXCHANGE	HF
CORRELATION	pRIMP2
BASIS		cc-pvtz
METHOD		rimp2
AUX_BASIS	rimp2-cc-pvtz
SOLVENT_METHOD	PCM
PURECART	11111
SYMMETRY	false
MEM_TOTAL	110000
SCF_CONVERGENCE = 6
THRESH=10
GUI = 2
$end

$solvent
dielectric 4.90
$end
--------------------------------------------------------------

             Standard Nuclear Orientation (Angstroms)
    I     Atom           X                Y                Z
 ----------------------------------------------------------------
    1      C       0.0460700000    -6.7414040000     0.2527670000
    2      C       0.2729350000    -6.1556380000     1.5386560000
    3      C      -0.1417390000    -5.7914520000    -0.8149660000
    4      C       0.3210830000    -4.8037860000     1.8130420000
    5      H       0.4255920000    -6.8215180000     2.4033180000
    6      C      -0.0917790000    -4.3786380000    -0.5275660000
    7      C       0.1389090000    -3.8380320000     0.7827690000
    8      C      -0.2738080000    -3.4130620000    -1.5566320000
    9      C       0.1884830000    -2.4264730000     1.0678680000
   10      C      -0.2266100000    -2.0593480000    -1.2854360000
   11      C       0.0000000000    -1.4782160000     0.0000000000
   12      H      -0.3796570000    -1.3947830000    -2.1510190000
   13      C      -0.3904200000    -6.1879870000    -2.2358910000
   14      C      -0.5221250000    -3.7981640000    -2.9655400000
   15      N      -0.5627310000    -5.1700030000    -3.2056000000
   16      C       0.5702440000    -4.4249870000     3.2257600000
   17      C       0.4384070000    -2.0366270000     2.4896460000
   18      N       0.6104380000    -3.0491560000     3.4596620000
   19      O      -0.4555630000    -7.3531310000    -2.6217680000
   20      O      -0.6833730000    -2.9868540000    -3.8746080000
   21      O       0.7293670000    -5.2489460000     4.1240590000
   22      O       0.5086970000    -0.8788290000     2.8965160000
   23      C      -0.8069960000    -5.5637990000    -4.5969100000
   24      H      -0.8137170000    -6.6640850000    -4.6416400000
   25      H      -0.0136550000    -5.1471010000    -5.2465670000
   26      H      -1.7751590000    -5.1487850000    -4.9367390000
   27      C       0.8515720000    -2.5874870000     4.8297290000
   28      H       0.9642040000    -3.4833290000     5.4623870000
   29      H       0.0039560000    -1.9649720000     5.1739140000
   30      H       1.7643900000    -1.9629320000     4.8633600000
   31      C       0.0000000000     0.0000000000     0.0000000000
   32      S       0.3350260000     0.7189420000     1.5805300000
   33      C       1.0271300000     2.2032260000     0.9049110000
   34      C       0.4216170000     0.9045570000    -0.9854000000
   35      C       0.9794850000     2.1011440000    -0.4935280000
   36      H       0.3220490000     0.6909780000    -2.0599340000
   37      H       1.3517180000     2.8995710000    -1.1525930000
   38      H       1.3992460000     3.0014300000     1.5560250000
   39      H      -0.8571280000    -7.3615890000     0.3033280000
   40      H       0.9125870000    -7.3611920000    -0.0079330000
   41      H      -1.0636840000    -1.4788310000     0.1870170000
 ----------------------------------------------------------------

   11   -1571.6584306191      6.13e-07  Convergence criterion met
 Total energy in the final basis set =    -1571.6584306191
        RIMP2         total energy =     -1576.3358811592 a.u.

                    Orbital Energies (a.u.)
 --------------------------------------------------------------

 Alpha MOs
 -- Occupied --
-91.9686 -20.5587 -20.5476 -20.5417 -20.5410 -15.6329 -15.6218 -11.4043
-11.3883 -11.3838 -11.3796 -11.3126 -11.3100 -11.3093 -11.3060 -11.2996
-11.2888 -11.2840 -11.2705 -11.2694 -11.2661 -11.2658 -11.2597 -11.2560
-11.2540 -11.2463 -11.2331  -8.9689  -6.6494  -6.6477  -6.6466  -1.4386
 -1.4126  -1.4050  -1.3917  -1.2704  -1.2562  -1.2312  -1.1847  -1.1446
 -1.1159  -1.0856  -1.0495  -0.9950  -0.9897  -0.9752  -0.9570  -0.9469
 -0.9000  -0.8909  -0.8803  -0.8634  -0.7912  -0.7836  -0.7770  -0.7585
 -0.7322  -0.7283  -0.7015  -0.6907  -0.6884  -0.6758  -0.6690  -0.6594
 -0.6525  -0.6448  -0.6381  -0.6335  -0.6329  -0.6322  -0.6240  -0.6063
 -0.5905  -0.5718  -0.5678  -0.5642  -0.5567  -0.5542  -0.5539  -0.5498
 -0.5483  -0.5457  -0.5225  -0.5143  -0.5117  -0.4894  -0.4742  -0.4640
 -0.4559  -0.4442  -0.4385  -0.4211  -0.4082  -0.3833  -0.3556  -0.3257
 -0.3192  -0.2746

          Ground-State Mulliken Net Atomic Charges

     Atom                 Charge (a.u.)
  ----------------------------------------
      1 C                    -0.084357
      2 C                    -0.027515
      3 C                    -0.110846
      4 C                    -0.123016
      5 H                     0.199738
      6 C                     0.025280
      7 C                     0.123618
      8 C                    -0.102085
      9 C                    -0.215273
     10 C                    -0.127763
     11 C                     0.191249
     12 H                     0.195526
     13 C                     0.342226
     14 C                     0.347794
     15 N                    -0.089967
     16 C                     0.358751
     17 C                     0.400678
     18 N                    -0.087705
     19 O                    -0.495100
     20 O                    -0.508171
     21 O                    -0.498270
     22 O                    -0.424466
     23 C                    -0.204909
     24 H                     0.139628
     25 H                     0.109394
     26 H                     0.109141
     27 C                    -0.199715
     28 H                     0.135557
     29 H                     0.113204
     30 H                     0.113712
     31 C                    -0.047517
     32 S                     0.072441
     33 C                    -0.250520
     34 C                    -0.183897
     35 C                    -0.247129
     36 H                     0.179200
     37 H                     0.178720
     38 H                     0.199972
     39 H                     0.138321
     40 H                     0.138572
     41 H                     0.215500
  ----------------------------------------
  Sum of atomic charges =     0.000000

                    Cartesian Multipole Moments
 -----------------------------------------------------------------
    Charge (ESU x 10^10)
                 0.0000
    Dipole Moment (Debye)
         X       0.0434      Y       0.1204      Z       1.8713
       Tot       1.8757
    Quadrupole Moments (Debye-Ang)
        XX    -162.0470     XY       2.4528     YY    -180.4672
        XZ      -4.3399     YZ     -10.6362     ZZ    -184.3980

 Total job time:  301.07s(wall), 9163.49s(cpu)
        *  Thank you very much for using Q-Chem.  Have a nice day.  *
