 Q-Chem 5.4, Q-Chem, Inc., Pleasanton, CA (2021)
 Q-Chem 5.4.0 for Intel X86 EM64T Linux

User input:
--------------------------------------------------------------
$molecule
0 1
C	-0.046070	-6.741404	-0.252767
C	-0.272935	-6.155638	-1.538656
C	0.141739	-5.791452	0.814966
C	-0.321083	-4.803786	-1.813042
H	-0.425592	-6.821518	-2.403318
C	0.091779	-4.378638	0.527566
C	-0.138909	-3.838032	-0.782769
C	0.273808	-3.413062	1.556632
C	-0.188483	-2.426473	-1.067868
C	0.226610	-2.059348	1.285436
C	0.000000	-1.478216	0.000000
H	0.379657	-1.394783	2.151019
C	0.390420	-6.187987	2.235891
C	0.522125	-3.798164	2.965540
N	0.562731	-5.170003	3.205600
C	-0.570244	-4.424987	-3.225760
C	-0.438407	-2.036627	-2.489646
N	-0.610438	-3.049156	-3.459662
O	0.455563	-7.353131	2.621768
O	0.683373	-2.986854	3.874608
O	-0.729367	-5.248946	-4.124059
O	-0.508697	-0.878829	-2.896516
C	0.806996	-5.563799	4.596910
H	0.813717	-6.664085	4.641640
H	0.013655	-5.147101	5.246567
H	1.775159	-5.148785	4.936739
C	-0.851572	-2.587487	-4.829729
H	-0.964204	-3.483329	-5.462387
H	-0.003956	-1.964972	-5.173914
H	-1.764390	-1.962932	-4.863360
C	0.000000	0.000000	0.000000
S	0.205093	0.766196	1.580530
C	0.628939	2.348114	0.904911
C	0.258137	0.964028	-0.985400
C	0.599745	2.239309	-0.493528
H	0.197169	0.736404	-2.059934
H	0.827678	3.090243	-1.152593
H	0.856796	3.198808	1.556025
H	0.857128	-7.361589	-0.303328
H	-0.912587	-7.361192	0.007933
H	1.063684	-1.478831	-0.187017
$end

$rem
JOBTYPE		SP
EXCHANGE	HF
CORRELATION	pRIMP2
BASIS		cc-pvtz
METHOD		rimp2
AUX_BASIS	rimp2-cc-pvtz
SOLVENT_METHOD	PCM
PURECART	11111
SYMMETRY	false
MEM_TOTAL	110000
SCF_CONVERGENCE = 6
THRESH=10
GUI = 2
$end

$solvent
dielectric 4.90
$end
--------------------------------------------------------------

             Standard Nuclear Orientation (Angstroms)
    I     Atom           X                Y                Z
 ----------------------------------------------------------------
    1      C      -0.0460700000    -6.7414040000    -0.2527670000
    2      C      -0.2729350000    -6.1556380000    -1.5386560000
    3      C       0.1417390000    -5.7914520000     0.8149660000
    4      C      -0.3210830000    -4.8037860000    -1.8130420000
    5      H      -0.4255920000    -6.8215180000    -2.4033180000
    6      C       0.0917790000    -4.3786380000     0.5275660000
    7      C      -0.1389090000    -3.8380320000    -0.7827690000
    8      C       0.2738080000    -3.4130620000     1.5566320000
    9      C      -0.1884830000    -2.4264730000    -1.0678680000
   10      C       0.2266100000    -2.0593480000     1.2854360000
   11      C       0.0000000000    -1.4782160000     0.0000000000
   12      H       0.3796570000    -1.3947830000     2.1510190000
   13      C       0.3904200000    -6.1879870000     2.2358910000
   14      C       0.5221250000    -3.7981640000     2.9655400000
   15      N       0.5627310000    -5.1700030000     3.2056000000
   16      C      -0.5702440000    -4.4249870000    -3.2257600000
   17      C      -0.4384070000    -2.0366270000    -2.4896460000
   18      N      -0.6104380000    -3.0491560000    -3.4596620000
   19      O       0.4555630000    -7.3531310000     2.6217680000
   20      O       0.6833730000    -2.9868540000     3.8746080000
   21      O      -0.7293670000    -5.2489460000    -4.1240590000
   22      O      -0.5086970000    -0.8788290000    -2.8965160000
   23      C       0.8069960000    -5.5637990000     4.5969100000
   24      H       0.8137170000    -6.6640850000     4.6416400000
   25      H       0.0136550000    -5.1471010000     5.2465670000
   26      H       1.7751590000    -5.1487850000     4.9367390000
   27      C      -0.8515720000    -2.5874870000    -4.8297290000
   28      H      -0.9642040000    -3.4833290000    -5.4623870000
   29      H      -0.0039560000    -1.9649720000    -5.1739140000
   30      H      -1.7643900000    -1.9629320000    -4.8633600000
   31      C       0.0000000000     0.0000000000     0.0000000000
   32      S       0.2050930000     0.7661960000     1.5805300000
   33      C       0.6289390000     2.3481140000     0.9049110000
   34      C       0.2581370000     0.9640280000    -0.9854000000
   35      C       0.5997450000     2.2393090000    -0.4935280000
   36      H       0.1971690000     0.7364040000    -2.0599340000
   37      H       0.8276780000     3.0902430000    -1.1525930000
   38      H       0.8567960000     3.1988080000     1.5560250000
   39      H       0.8571280000    -7.3615890000    -0.3033280000
   40      H      -0.9125870000    -7.3611920000     0.0079330000
   41      H       1.0636840000    -1.4788310000    -0.1870170000
 ----------------------------------------------------------------

   11   -1571.7319247871      5.90e-07  Convergence criterion met
 Total energy in the final basis set =    -1571.7319247871
        RIMP2         total energy =     -1576.3912799225 a.u.

                    Orbital Energies (a.u.)
 --------------------------------------------------------------

 Alpha MOs
 -- Occupied --
-91.9898 -20.5540 -20.5458 -20.5425 -20.5414 -15.6291 -15.6219 -11.3974
-11.3866 -11.3843 -11.3800 -11.3103 -11.3088 -11.3063 -11.3054 -11.2985
-11.2979 -11.2927 -11.2751 -11.2706 -11.2693 -11.2671 -11.2643 -11.2597
-11.2537 -11.2471 -11.2379  -8.9899  -6.6708  -6.6702  -6.6696  -1.4235
 -1.4129  -1.3999  -1.3921  -1.2646  -1.2562  -1.2323  -1.1884  -1.1505
 -1.1155  -1.0875  -1.0489  -0.9959  -0.9888  -0.9828  -0.9559  -0.9494
 -0.8982  -0.8909  -0.8783  -0.8615  -0.7956  -0.7813  -0.7728  -0.7586
 -0.7398  -0.7192  -0.7019  -0.6904  -0.6841  -0.6739  -0.6686  -0.6583
 -0.6493  -0.6474  -0.6384  -0.6323  -0.6318  -0.6297  -0.6241  -0.6054
 -0.5930  -0.5720  -0.5642  -0.5609  -0.5583  -0.5526  -0.5513  -0.5494
 -0.5484  -0.5430  -0.5166  -0.5151  -0.5114  -0.4869  -0.4750  -0.4598
 -0.4580  -0.4508  -0.4434  -0.4364  -0.4157  -0.4084  -0.3577  -0.3498
 -0.3321  -0.2782

          Ground-State Mulliken Net Atomic Charges

     Atom                 Charge (a.u.)
  ----------------------------------------
      1 C                    -0.084299
      2 C                    -0.031115
      3 C                    -0.103928
      4 C                    -0.123795
      5 H                     0.199277
      6 C                     0.025462
      7 C                     0.117142
      8 C                    -0.045301
      9 C                    -0.203707
     10 C                    -0.164928
     11 C                     0.161699
     12 H                     0.183495
     13 C                     0.341684
     14 C                     0.346111
     15 N                    -0.090045
     16 C                     0.358453
     17 C                     0.381770
     18 N                    -0.088813
     19 O                    -0.493393
     20 O                    -0.506539
     21 O                    -0.500500
     22 O                    -0.483339
     23 C                    -0.204802
     24 H                     0.139587
     25 H                     0.109711
     26 H                     0.109364
     27 C                    -0.198510
     28 H                     0.134327
     29 H                     0.111417
     30 H                     0.112473
     31 C                     0.017890
     32 S                    -0.009310
     33 C                    -0.225503
     34 C                    -0.180994
     35 C                    -0.232965
     36 H                     0.218989
     37 H                     0.190117
     38 H                     0.214635
     39 H                     0.138308
     40 H                     0.138544
     41 H                     0.221330
  ----------------------------------------
  Sum of atomic charges =     0.000000

                    Cartesian Multipole Moments
 -----------------------------------------------------------------
    Charge (ESU x 10^10)
                -0.0000
    Dipole Moment (Debye)
         X       1.1353      Y       1.4021      Z      -2.3205
       Tot       2.9393
    Quadrupole Moments (Debye-Ang)
        XX    -162.7942     XY       2.6937     YY    -176.7847
        XZ      -5.5239     YZ       9.4207     ZZ    -187.7086

 Total job time:  302.26s(wall), 9206.21s(cpu)
        *  Thank you very much for using Q-Chem.  Have a nice day.  *
