 Q-Chem 5.4, Q-Chem, Inc., Pleasanton, CA (2021)
 Q-Chem 5.4.0 for Intel X86 EM64T Linux

User input:
--------------------------------------------------------------
$molecule
0 1
C	0.046070	-6.741404	0.252767
C	0.272935	-6.155638	1.538656
C	-0.141739	-5.791452	-0.814966
C	0.321083	-4.803786	1.813042
H	0.425592	-6.821518	2.403318
C	-0.091779	-4.378638	-0.527566
C	0.138909	-3.838032	0.782769
C	-0.273808	-3.413062	-1.556632
C	0.188483	-2.426473	1.067868
C	-0.226610	-2.059348	-1.285436
C	0.000000	-1.478216	0.000000
H	-0.379657	-1.394783	-2.151019
C	-0.390420	-6.187987	-2.235891
C	-0.522125	-3.798164	-2.965540
N	-0.562731	-5.170003	-3.205600
C	0.570244	-4.424987	3.225760
C	0.438407	-2.036627	2.489646
N	0.610438	-3.049156	3.459662
O	-0.455563	-7.353131	-2.621768
O	-0.683373	-2.986854	-3.874608
O	0.729367	-5.248946	4.124059
O	0.508697	-0.878829	2.896516
C	-0.806996	-5.563799	-4.596910
H	-0.813717	-6.664085	-4.641640
H	-0.013655	-5.147101	-5.246567
H	-1.775159	-5.148785	-4.936739
C	0.851572	-2.587487	4.829729
H	0.964204	-3.483329	5.462387
H	0.003956	-1.964972	5.173914
H	1.764390	-1.962932	4.863360
C	0.000000	0.000000	0.000000
S	0.509686	0.607733	1.580530
C	1.562368	1.862312	0.904911
C	0.641367	0.764613	-0.985400
C	1.489926	1.776040	-0.493528
H	0.489914	0.584081	-2.059934
H	2.056124	2.450920	-1.152593
H	2.128395	2.537007	1.556025
H	-0.857128	-7.361589	0.303328
H	0.912587	-7.361192	-0.007933
H	-1.063684	-1.478831	0.187017
$end

$rem
JOBTYPE		SP
EXCHANGE	HF
CORRELATION	pRIMP2
BASIS		cc-pvtz
METHOD		rimp2
AUX_BASIS	rimp2-cc-pvtz
SOLVENT_METHOD	PCM
PURECART	11111
SYMMETRY	false
MEM_TOTAL	110000
SCF_CONVERGENCE = 6
THRESH=10
GUI = 2
$end

$solvent
dielectric 4.90
$end
--------------------------------------------------------------

             Standard Nuclear Orientation (Angstroms)
    I     Atom           X                Y                Z
 ----------------------------------------------------------------
    1      C       0.0460700000    -6.7414040000     0.2527670000
    2      C       0.2729350000    -6.1556380000     1.5386560000
    3      C      -0.1417390000    -5.7914520000    -0.8149660000
    4      C       0.3210830000    -4.8037860000     1.8130420000
    5      H       0.4255920000    -6.8215180000     2.4033180000
    6      C      -0.0917790000    -4.3786380000    -0.5275660000
    7      C       0.1389090000    -3.8380320000     0.7827690000
    8      C      -0.2738080000    -3.4130620000    -1.5566320000
    9      C       0.1884830000    -2.4264730000     1.0678680000
   10      C      -0.2266100000    -2.0593480000    -1.2854360000
   11      C       0.0000000000    -1.4782160000     0.0000000000
   12      H      -0.3796570000    -1.3947830000    -2.1510190000
   13      C      -0.3904200000    -6.1879870000    -2.2358910000
   14      C      -0.5221250000    -3.7981640000    -2.9655400000
   15      N      -0.5627310000    -5.1700030000    -3.2056000000
   16      C       0.5702440000    -4.4249870000     3.2257600000
   17      C       0.4384070000    -2.0366270000     2.4896460000
   18      N       0.6104380000    -3.0491560000     3.4596620000
   19      O      -0.4555630000    -7.3531310000    -2.6217680000
   20      O      -0.6833730000    -2.9868540000    -3.8746080000
   21      O       0.7293670000    -5.2489460000     4.1240590000
   22      O       0.5086970000    -0.8788290000     2.8965160000
   23      C      -0.8069960000    -5.5637990000    -4.5969100000
   24      H      -0.8137170000    -6.6640850000    -4.6416400000
   25      H      -0.0136550000    -5.1471010000    -5.2465670000
   26      H      -1.7751590000    -5.1487850000    -4.9367390000
   27      C       0.8515720000    -2.5874870000     4.8297290000
   28      H       0.9642040000    -3.4833290000     5.4623870000
   29      H       0.0039560000    -1.9649720000     5.1739140000
   30      H       1.7643900000    -1.9629320000     4.8633600000
   31      C       0.0000000000     0.0000000000     0.0000000000
   32      S       0.5096860000     0.6077330000     1.5805300000
   33      C       1.5623680000     1.8623120000     0.9049110000
   34      C       0.6413670000     0.7646130000    -0.9854000000
   35      C       1.4899260000     1.7760400000    -0.4935280000
   36      H       0.4899140000     0.5840810000    -2.0599340000
   37      H       2.0561240000     2.4509200000    -1.1525930000
   38      H       2.1283950000     2.5370070000     1.5560250000
   39      H      -0.8571280000    -7.3615890000     0.3033280000
   40      H       0.9125870000    -7.3611920000    -0.0079330000
   41      H      -1.0636840000    -1.4788310000     0.1870170000
 ----------------------------------------------------------------

   11   -1571.6115476959      6.78e-07  Convergence criterion met
 Total energy in the final basis set =    -1571.6115476959
        RIMP2         total energy =     -1576.3005960440 a.u.

                    Orbital Energies (a.u.)
 --------------------------------------------------------------

 Alpha MOs
 -- Occupied --
-91.9715 -20.5638 -20.5482 -20.5402 -20.5398 -15.6350 -15.6208 -11.4079
-11.3890 -11.3823 -11.3783 -11.3119 -11.3101 -11.3074 -11.3051 -11.2996
-11.2846 -11.2704 -11.2701 -11.2672 -11.2670 -11.2638 -11.2596 -11.2592
-11.2533 -11.2476 -11.2311  -8.9718  -6.6524  -6.6503  -6.6489  -1.4475
 -1.4114  -1.4066  -1.3905  -1.2732  -1.2551  -1.2303  -1.1845  -1.1442
 -1.1151  -1.0839  -1.0490  -0.9960  -0.9898  -0.9778  -0.9570  -0.9461
 -0.9016  -0.8895  -0.8803  -0.8630  -0.7906  -0.7855  -0.7778  -0.7590
 -0.7362  -0.7275  -0.7016  -0.6910  -0.6879  -0.6772  -0.6686  -0.6591
 -0.6532  -0.6442  -0.6376  -0.6330  -0.6321  -0.6316  -0.6239  -0.6063
 -0.5910  -0.5751  -0.5673  -0.5653  -0.5585  -0.5550  -0.5547  -0.5491
 -0.5475  -0.5454  -0.5257  -0.5143  -0.5102  -0.4897  -0.4685  -0.4617
 -0.4542  -0.4430  -0.4388  -0.4227  -0.4072  -0.3812  -0.3552  -0.3253
 -0.3021  -0.2712

          Ground-State Mulliken Net Atomic Charges

     Atom                 Charge (a.u.)
  ----------------------------------------
      1 C                    -0.085156
      2 C                    -0.026139
      3 C                    -0.116292
      4 C                    -0.122842
      5 H                     0.199638
      6 C                     0.022370
      7 C                     0.126079
      8 C                    -0.098046
      9 C                    -0.230608
     10 C                    -0.128095
     11 C                     0.178587
     12 H                     0.194286
     13 C                     0.341700
     14 C                     0.346531
     15 N                    -0.089393
     16 C                     0.358918
     17 C                     0.403611
     18 N                    -0.085275
     19 O                    -0.497477
     20 O                    -0.509815
     21 O                    -0.497402
     22 O                    -0.399990
     23 C                    -0.205224
     24 H                     0.139449
     25 H                     0.109095
     26 H                     0.108882
     27 C                    -0.199699
     28 H                     0.136147
     29 H                     0.113581
     30 H                     0.114032
     31 C                    -0.077405
     32 S                     0.084506
     33 C                    -0.242751
     34 C                    -0.163910
     35 C                    -0.256709
     36 H                     0.182262
     37 H                     0.177702
     38 H                     0.199549
     39 H                     0.137714
     40 H                     0.137895
     41 H                     0.219693
  ----------------------------------------
  Sum of atomic charges =     0.000000

                    Cartesian Multipole Moments
 -----------------------------------------------------------------
    Charge (ESU x 10^10)
                 0.0000
    Dipole Moment (Debye)
         X       0.5217      Y       0.2545      Z       2.5085
       Tot       2.5748
    Quadrupole Moments (Debye-Ang)
        XX    -160.1274     XY       3.0423     YY    -184.1659
        XZ      -3.7645     YZ     -11.9129     ZZ    -183.3665

 Total job time:  311.09s(wall), 9396.67s(cpu)
        *  Thank you very much for using Q-Chem.  Have a nice day.  *
