 Q-Chem 5.4, Q-Chem, Inc., Pleasanton, CA (2021)
 Q-Chem 5.4.0 for Intel X86 EM64T Linux

User input:
--------------------------------------------------------------
$molecule
0 1
C	-0.241938	-6.741404	-0.086486
C	-1.468983	-6.155638	-0.532960
C	0.776651	-5.791452	0.284733
C	-1.730681	-4.803786	-0.628455
H	-2.294130	-6.821518	-0.833086
C	0.502775	-4.378638	0.184300
C	-0.747353	-3.838032	-0.271086
C	1.484986	-3.413062	0.541191
C	-1.019042	-2.426473	-0.370703
C	1.226525	-2.059348	0.446468
C	0.000000	-1.478216	0.000000
H	2.052666	-1.394783	0.746717
C	2.131549	-6.187987	0.779832
C	2.829295	-3.798164	1.030596
N	3.057496	-5.170003	1.115461
C	-3.078712	-4.424987	-1.119034
C	-2.375300	-2.036627	-0.865151
N	-3.301374	-3.049156	-1.201176
O	2.498300	-7.353131	0.916355
O	3.697195	-2.986854	1.345486
O	-3.936224	-5.248946	-1.430379
O	-2.762805	-0.878829	-1.007714
C	4.384539	-5.563799	1.599576
H	4.426636	-6.664085	1.616121
H	4.550487	-5.147101	2.611458
H	5.162921	-5.148785	0.931037
C	-4.608454	-2.587487	-1.677382
H	-5.212668	-3.483329	-1.896168
H	-4.482719	-1.964972	-2.583531
H	-5.093988	-1.962932	-0.903674
C	0.000000	0.000000	0.000000
S	0.396411	0.687007	1.580530
C	1.215245	2.105322	0.904911
C	0.498850	0.864369	-0.985400
C	1.158885	2.007781	-0.493528
H	0.381046	0.660280	-2.059934
H	1.599289	2.770727	-1.152593
H	1.655514	2.868056	1.556025
H	0.165874	-7.361589	-0.893959
H	-0.449423	-7.361192	0.794290
H	0.369880	-1.478831	-1.014686
$end

$rem
JOBTYPE		SP
EXCHANGE	HF
CORRELATION	pRIMP2
BASIS		cc-pvtz
METHOD		rimp2
AUX_BASIS	rimp2-cc-pvtz
SOLVENT_METHOD	PCM
PURECART	11111
SYMMETRY	false
MEM_TOTAL	110000
SCF_CONVERGENCE = 6
THRESH=10
GUI = 2
$end

$solvent
dielectric 4.90
$end
--------------------------------------------------------------

             Standard Nuclear Orientation (Angstroms)
    I     Atom           X                Y                Z
 ----------------------------------------------------------------
    1      C      -0.2419380000    -6.7414040000    -0.0864860000
    2      C      -1.4689830000    -6.1556380000    -0.5329600000
    3      C       0.7766510000    -5.7914520000     0.2847330000
    4      C      -1.7306810000    -4.8037860000    -0.6284550000
    5      H      -2.2941300000    -6.8215180000    -0.8330860000
    6      C       0.5027750000    -4.3786380000     0.1843000000
    7      C      -0.7473530000    -3.8380320000    -0.2710860000
    8      C       1.4849860000    -3.4130620000     0.5411910000
    9      C      -1.0190420000    -2.4264730000    -0.3707030000
   10      C       1.2265250000    -2.0593480000     0.4464680000
   11      C       0.0000000000    -1.4782160000     0.0000000000
   12      H       2.0526660000    -1.3947830000     0.7467170000
   13      C       2.1315490000    -6.1879870000     0.7798320000
   14      C       2.8292950000    -3.7981640000     1.0305960000
   15      N       3.0574960000    -5.1700030000     1.1154610000
   16      C      -3.0787120000    -4.4249870000    -1.1190340000
   17      C      -2.3753000000    -2.0366270000    -0.8651510000
   18      N      -3.3013740000    -3.0491560000    -1.2011760000
   19      O       2.4983000000    -7.3531310000     0.9163550000
   20      O       3.6971950000    -2.9868540000     1.3454860000
   21      O      -3.9362240000    -5.2489460000    -1.4303790000
   22      O      -2.7628050000    -0.8788290000    -1.0077140000
   23      C       4.3845390000    -5.5637990000     1.5995760000
   24      H       4.4266360000    -6.6640850000     1.6161210000
   25      H       4.5504870000    -5.1471010000     2.6114580000
   26      H       5.1629210000    -5.1487850000     0.9310370000
   27      C      -4.6084540000    -2.5874870000    -1.6773820000
   28      H      -5.2126680000    -3.4833290000    -1.8961680000
   29      H      -4.4827190000    -1.9649720000    -2.5835310000
   30      H      -5.0939880000    -1.9629320000    -0.9036740000
   31      C       0.0000000000     0.0000000000     0.0000000000
   32      S       0.3964110000     0.6870070000     1.5805300000
   33      C       1.2152450000     2.1053220000     0.9049110000
   34      C       0.4988500000     0.8643690000    -0.9854000000
   35      C       1.1588850000     2.0077810000    -0.4935280000
   36      H       0.3810460000     0.6602800000    -2.0599340000
   37      H       1.5992890000     2.7707270000    -1.1525930000
   38      H       1.6555140000     2.8680560000     1.5560250000
   39      H       0.1658740000    -7.3615890000    -0.8939590000
   40      H      -0.4494230000    -7.3611920000     0.7942900000
   41      H       0.3698800000    -1.4788310000    -1.0146860000
 ----------------------------------------------------------------

   11   -1571.7343390000      5.52e-07  Convergence criterion met
 Total energy in the final basis set =    -1571.7343390000
        RIMP2         total energy =     -1576.3925399928 a.u.

                    Orbital Energies (a.u.)
 --------------------------------------------------------------

 Alpha MOs
 -- Occupied --
-91.9896 -20.5527 -20.5441 -20.5413 -20.5404 -15.6267 -15.6210 -11.3933
-11.3847 -11.3831 -11.3790 -11.3083 -11.3062 -11.3041 -11.3034 -11.2952
-11.2945 -11.2881 -11.2859 -11.2682 -11.2672 -11.2646 -11.2627 -11.2595
-11.2593 -11.2527 -11.2520  -8.9895  -6.6703  -6.6698  -6.6693  -1.4194
 -1.4120  -1.3970  -1.3911  -1.2618  -1.2552  -1.2301  -1.1886  -1.1526
 -1.1135  -1.0855  -1.0460  -0.9967  -0.9879  -0.9872  -0.9549  -0.9500
 -0.8963  -0.8871  -0.8758  -0.8587  -0.7953  -0.7777  -0.7702  -0.7629
 -0.7421  -0.7172  -0.7039  -0.6915  -0.6820  -0.6713  -0.6662  -0.6570
 -0.6466  -0.6435  -0.6354  -0.6331  -0.6303  -0.6272  -0.6216  -0.6044
 -0.5845  -0.5761  -0.5686  -0.5612  -0.5563  -0.5510  -0.5505  -0.5484
 -0.5474  -0.5432  -0.5204  -0.5129  -0.5068  -0.4837  -0.4754  -0.4643
 -0.4582  -0.4510  -0.4425  -0.4341  -0.4132  -0.4071  -0.3595  -0.3483
 -0.3299  -0.2874

          Ground-State Mulliken Net Atomic Charges

     Atom                 Charge (a.u.)
  ----------------------------------------
      1 C                    -0.084846
      2 C                    -0.033526
      3 C                    -0.111886
      4 C                    -0.120467
      5 H                     0.198184
      6 C                     0.019368
      7 C                     0.116975
      8 C                    -0.097913
      9 C                    -0.178416
     10 C                    -0.110407
     11 C                     0.148691
     12 H                     0.201990
     13 C                     0.343355
     14 C                     0.344155
     15 N                    -0.089938
     16 C                     0.357295
     17 C                     0.348947
     18 N                    -0.092076
     19 O                    -0.494874
     20 O                    -0.507133
     21 O                    -0.501709
     22 O                    -0.472193
     23 C                    -0.204953
     24 H                     0.139420
     25 H                     0.109234
     26 H                     0.108880
     27 C                    -0.197300
     28 H                     0.133152
     29 H                     0.110836
     30 H                     0.112144
     31 C                     0.027860
     32 S                     0.008628
     33 C                    -0.202926
     34 C                    -0.193663
     35 C                    -0.201800
     36 H                     0.183868
     37 H                     0.193655
     38 H                     0.211265
     39 H                     0.136838
     40 H                     0.137095
     41 H                     0.204193
  ----------------------------------------
  Sum of atomic charges =     0.000000

                    Cartesian Multipole Moments
 -----------------------------------------------------------------
    Charge (ESU x 10^10)
                 0.0000
    Dipole Moment (Debye)
         X       0.5819      Y       2.3667      Z      -2.0672
       Tot       3.1958
    Quadrupole Moments (Debye-Ang)
        XX    -189.4373     XY      12.6603     YY    -181.5835
        XZ     -10.4219     YZ       4.7617     ZZ    -159.9731

 Total job time:  303.79s(wall), 9018.59s(cpu)
        *  Thank you very much for using Q-Chem.  Have a nice day.  *
