 Q-Chem 5.4, Q-Chem, Inc., Pleasanton, CA (2021)
 Q-Chem 5.4.0 for Intel X86 EM64T Linux

User input:
--------------------------------------------------------------
$molecule
0 1
C	-0.195868	-6.741404	0.166281
C	-1.196048	-6.155638	1.005696
C	0.634911	-5.791452	-0.530233
C	-1.409599	-4.803786	1.184587
H	-1.868538	-6.821518	1.570232
C	0.410996	-4.378638	-0.343266
C	-0.608444	-3.838032	0.511683
C	1.211179	-3.413062	-1.015440
C	-0.830559	-2.426473	0.697165
C	0.999915	-2.059348	-0.838968
C	0.000000	-1.478216	0.000000
H	1.673009	-1.394783	-1.404302
C	1.741129	-6.187987	-1.456059
C	2.307170	-3.798164	-1.934944
N	2.494766	-5.170003	-2.090139
C	-2.508468	-4.424987	2.106725
C	-1.936893	-2.036627	1.624494
N	-2.690936	-3.049156	2.258486
O	2.042736	-7.353131	-1.705414
O	3.013823	-2.986854	-2.529122
O	-3.206857	-5.248946	2.693680
O	-2.254108	-0.878829	1.888802
C	3.577543	-5.563799	-2.997334
H	3.612920	-6.664085	-3.025519
H	4.536833	-5.147101	-2.635109
H	3.387762	-5.148785	-4.005702
C	-3.756883	-2.587487	3.152347
H	-4.248464	-3.483329	3.566218
H	-4.478763	-1.964972	2.590383
H	-3.329599	-1.962932	3.959687
C	0.000000	0.000000	0.000000
S	0.205093	0.766196	1.580530
C	0.628939	2.348114	0.904911
C	0.258137	0.964028	-0.985400
C	0.599745	2.239309	-0.493528
H	0.197169	0.736404	-2.059934
H	0.827678	3.090243	-1.152593
H	0.856796	3.198808	1.556025
H	-0.691254	-7.361589	-0.590631
H	0.463164	-7.361192	0.786357
H	-0.693804	-1.478831	-0.827669
$end

$rem
JOBTYPE		SP
EXCHANGE	HF
CORRELATION	pRIMP2
BASIS		cc-pvtz
METHOD		rimp2
AUX_BASIS	rimp2-cc-pvtz
SOLVENT_METHOD	PCM
PURECART	11111
SYMMETRY	false
MEM_TOTAL	110000
SCF_CONVERGENCE = 6
THRESH=10
GUI = 2
$end

$solvent
dielectric 4.90
$end
--------------------------------------------------------------

             Standard Nuclear Orientation (Angstroms)
    I     Atom           X                Y                Z
 ----------------------------------------------------------------
    1      C      -0.1958680000    -6.7414040000     0.1662810000
    2      C      -1.1960480000    -6.1556380000     1.0056960000
    3      C       0.6349110000    -5.7914520000    -0.5302330000
    4      C      -1.4095990000    -4.8037860000     1.1845870000
    5      H      -1.8685380000    -6.8215180000     1.5702320000
    6      C       0.4109960000    -4.3786380000    -0.3432660000
    7      C      -0.6084440000    -3.8380320000     0.5116830000
    8      C       1.2111790000    -3.4130620000    -1.0154400000
    9      C      -0.8305590000    -2.4264730000     0.6971650000
   10      C       0.9999150000    -2.0593480000    -0.8389680000
   11      C       0.0000000000    -1.4782160000     0.0000000000
   12      H       1.6730090000    -1.3947830000    -1.4043020000
   13      C       1.7411290000    -6.1879870000    -1.4560590000
   14      C       2.3071700000    -3.7981640000    -1.9349440000
   15      N       2.4947660000    -5.1700030000    -2.0901390000
   16      C      -2.5084680000    -4.4249870000     2.1067250000
   17      C      -1.9368930000    -2.0366270000     1.6244940000
   18      N      -2.6909360000    -3.0491560000     2.2584860000
   19      O       2.0427360000    -7.3531310000    -1.7054140000
   20      O       3.0138230000    -2.9868540000    -2.5291220000
   21      O      -3.2068570000    -5.2489460000     2.6936800000
   22      O      -2.2541080000    -0.8788290000     1.8888020000
   23      C       3.5775430000    -5.5637990000    -2.9973340000
   24      H       3.6129200000    -6.6640850000    -3.0255190000
   25      H       4.5368330000    -5.1471010000    -2.6351090000
   26      H       3.3877620000    -5.1487850000    -4.0057020000
   27      C      -3.7568830000    -2.5874870000     3.1523470000
   28      H      -4.2484640000    -3.4833290000     3.5662180000
   29      H      -4.4787630000    -1.9649720000     2.5903830000
   30      H      -3.3295990000    -1.9629320000     3.9596870000
   31      C       0.0000000000     0.0000000000     0.0000000000
   32      S       0.2050930000     0.7661960000     1.5805300000
   33      C       0.6289390000     2.3481140000     0.9049110000
   34      C       0.2581370000     0.9640280000    -0.9854000000
   35      C       0.5997450000     2.2393090000    -0.4935280000
   36      H       0.1971690000     0.7364040000    -2.0599340000
   37      H       0.8276780000     3.0902430000    -1.1525930000
   38      H       0.8567960000     3.1988080000     1.5560250000
   39      H      -0.6912540000    -7.3615890000    -0.5906310000
   40      H       0.4631640000    -7.3611920000     0.7863570000
   41      H      -0.6938040000    -1.4788310000    -0.8276690000
 ----------------------------------------------------------------

   11   -1571.7410140379      5.66e-07  Convergence criterion met
 Total energy in the final basis set =    -1571.7410140379
        RIMP2         total energy =     -1576.3986634048 a.u.

                    Orbital Energies (a.u.)
 --------------------------------------------------------------

 Alpha MOs
 -- Occupied --
-91.9832 -20.5521 -20.5447 -20.5418 -20.5408 -15.6271 -15.6216 -11.3939
-11.3854 -11.3837 -11.3795 -11.3099 -11.3095 -11.3062 -11.3051 -11.2972
-11.2972 -11.2908 -11.2779 -11.2693 -11.2686 -11.2648 -11.2629 -11.2597
-11.2556 -11.2530 -11.2482  -8.9830  -6.6637  -6.6632  -6.6627  -1.4203
 -1.4124  -1.3978  -1.3916  -1.2625  -1.2557  -1.2304  -1.1864  -1.1514
 -1.1146  -1.0867  -1.0473  -0.9950  -0.9881  -0.9820  -0.9553  -0.9505
 -0.8967  -0.8885  -0.8772  -0.8604  -0.7938  -0.7772  -0.7717  -0.7618
 -0.7389  -0.7171  -0.7035  -0.6918  -0.6810  -0.6735  -0.6670  -0.6575
 -0.6475  -0.6455  -0.6367  -0.6330  -0.6312  -0.6284  -0.6213  -0.6051
 -0.5851  -0.5750  -0.5662  -0.5619  -0.5582  -0.5517  -0.5509  -0.5481
 -0.5472  -0.5440  -0.5209  -0.5134  -0.5100  -0.4825  -0.4744  -0.4597
 -0.4570  -0.4503  -0.4429  -0.4348  -0.4132  -0.4077  -0.3536  -0.3487
 -0.3292  -0.2843

          Ground-State Mulliken Net Atomic Charges

     Atom                 Charge (a.u.)
  ----------------------------------------
      1 C                    -0.084380
      2 C                    -0.029796
      3 C                    -0.111146
      4 C                    -0.125495
      5 H                     0.199333
      6 C                     0.025969
      7 C                     0.118905
      8 C                    -0.091926
      9 C                    -0.165310
     10 C                    -0.144947
     11 C                     0.203403
     12 H                     0.197388
     13 C                     0.342508
     14 C                     0.347360
     15 N                    -0.089856
     16 C                     0.357324
     17 C                     0.346412
     18 N                    -0.090922
     19 O                    -0.494587
     20 O                    -0.507843
     21 O                    -0.501378
     22 O                    -0.469187
     23 C                    -0.204783
     24 H                     0.139564
     25 H                     0.109341
     26 H                     0.108868
     27 C                    -0.197090
     28 H                     0.133264
     29 H                     0.111644
     30 H                     0.112025
     31 C                    -0.010195
     32 S                     0.040663
     33 C                    -0.220091
     34 C                    -0.224530
     35 C                    -0.203667
     36 H                     0.190409
     37 H                     0.189719
     38 H                     0.208665
     39 H                     0.137670
     40 H                     0.138229
     41 H                     0.208468
  ----------------------------------------
  Sum of atomic charges =     0.000000

                    Cartesian Multipole Moments
 -----------------------------------------------------------------
    Charge (ESU x 10^10)
                 0.0000
    Dipole Moment (Debye)
         X      -0.9793      Y       1.8390      Z      -0.8837
       Tot       2.2632
    Quadrupole Moments (Debye-Ang)
        XX    -181.3204     XY      10.3945     YY    -178.4309
        XZ      16.2946     YZ      -4.1473     ZZ    -169.9339

 Total job time:  285.62s(wall), 8846.76s(cpu)
        *  Thank you very much for using Q-Chem.  Have a nice day.  *
