 Q-Chem 5.4, Q-Chem, Inc., Pleasanton, CA (2021)
 Q-Chem 5.4.0 for Intel X86 EM64T Linux

User input:
--------------------------------------------------------------
$molecule
0 1
C	0.001478	-6.741404	0.256927
C	0.001603	-6.155638	1.562675
C	0.001931	-5.791452	-0.827197
C	0.001374	-4.803786	1.841253
H	0.001794	-6.821518	2.440709
C	0.001227	-4.378638	-0.535488
C	0.000872	-3.838032	0.794999
C	0.000658	-3.413062	-1.580529
C	0.000186	-2.426473	1.084374
C	0.000046	-2.059348	-1.305258
C	0.000000	-1.478216	0.000000
H	-0.000369	-1.394783	-2.184267
C	0.003770	-6.187987	-2.269719
C	0.000767	-3.798164	-3.011152
N	0.002465	-5.170003	-3.254617
C	0.001433	-4.424987	3.275775
C	-0.000576	-2.036627	2.527951
N	0.000400	-3.049156	3.513104
O	0.006623	-7.353131	-2.661046
O	-0.000172	-2.986854	-3.934410
O	0.002151	-5.248946	4.188059
O	-0.002006	-0.878829	2.940845
C	0.003509	-5.563799	-4.667206
H	0.004658	-6.664085	-4.712423
H	0.897610	-5.147101	-5.169231
H	-0.890935	-5.148785	-5.169992
C	-0.000039	-2.587487	4.904229
H	0.001022	-3.483329	5.546833
H	-0.894545	-1.964972	5.095998
H	0.893071	-1.962932	5.095858
C	0.000000	0.000000	0.000000
S	0.205093	0.766196	1.580530
C	0.628939	2.348114	0.904911
C	0.258137	0.964028	-0.985400
C	0.599745	2.239309	-0.493528
H	0.197169	0.736404	-2.059934
H	0.827678	3.090243	-1.152593
H	0.856796	3.198808	1.556025
H	-0.896779	-7.361589	0.149881
H	0.900100	-7.361192	0.150656
H	-1.080000	-1.478831	-0.000531
$end

$rem
JOBTYPE		SP
EXCHANGE	HF
CORRELATION	pRIMP2
BASIS		cc-pvtz
METHOD		rimp2
AUX_BASIS	rimp2-cc-pvtz
SOLVENT_METHOD	PCM
PURECART	11111
SYMMETRY	false
MEM_TOTAL	110000
SCF_CONVERGENCE = 6
THRESH=10
GUI = 2
$end

$solvent
dielectric 4.90
$end
--------------------------------------------------------------

             Standard Nuclear Orientation (Angstroms)
    I     Atom           X                Y                Z
 ----------------------------------------------------------------
    1      C       0.0014780000    -6.7414040000     0.2569270000
    2      C       0.0016030000    -6.1556380000     1.5626750000
    3      C       0.0019310000    -5.7914520000    -0.8271970000
    4      C       0.0013740000    -4.8037860000     1.8412530000
    5      H       0.0017940000    -6.8215180000     2.4407090000
    6      C       0.0012270000    -4.3786380000    -0.5354880000
    7      C       0.0008720000    -3.8380320000     0.7949990000
    8      C       0.0006580000    -3.4130620000    -1.5805290000
    9      C       0.0001860000    -2.4264730000     1.0843740000
   10      C       0.0000460000    -2.0593480000    -1.3052580000
   11      C       0.0000000000    -1.4782160000     0.0000000000
   12      H      -0.0003690000    -1.3947830000    -2.1842670000
   13      C       0.0037700000    -6.1879870000    -2.2697190000
   14      C       0.0007670000    -3.7981640000    -3.0111520000
   15      N       0.0024650000    -5.1700030000    -3.2546170000
   16      C       0.0014330000    -4.4249870000     3.2757750000
   17      C      -0.0005760000    -2.0366270000     2.5279510000
   18      N       0.0004000000    -3.0491560000     3.5131040000
   19      O       0.0066230000    -7.3531310000    -2.6610460000
   20      O      -0.0001720000    -2.9868540000    -3.9344100000
   21      O       0.0021510000    -5.2489460000     4.1880590000
   22      O      -0.0020060000    -0.8788290000     2.9408450000
   23      C       0.0035090000    -5.5637990000    -4.6672060000
   24      H       0.0046580000    -6.6640850000    -4.7124230000
   25      H       0.8976100000    -5.1471010000    -5.1692310000
   26      H      -0.8909350000    -5.1487850000    -5.1699920000
   27      C      -0.0000390000    -2.5874870000     4.9042290000
   28      H       0.0010220000    -3.4833290000     5.5468330000
   29      H      -0.8945450000    -1.9649720000     5.0959980000
   30      H       0.8930710000    -1.9629320000     5.0958580000
   31      C       0.0000000000     0.0000000000     0.0000000000
   32      S       0.2050930000     0.7661960000     1.5805300000
   33      C       0.6289390000     2.3481140000     0.9049110000
   34      C       0.2581370000     0.9640280000    -0.9854000000
   35      C       0.5997450000     2.2393090000    -0.4935280000
   36      H       0.1971690000     0.7364040000    -2.0599340000
   37      H       0.8276780000     3.0902430000    -1.1525930000
   38      H       0.8567960000     3.1988080000     1.5560250000
   39      H      -0.8967790000    -7.3615890000     0.1498810000
   40      H       0.9001000000    -7.3611920000     0.1506560000
   41      H      -1.0800000000    -1.4788310000    -0.0005310000
 ----------------------------------------------------------------

   11   -1571.6866454323      6.00e-07  Convergence criterion met
 Total energy in the final basis set =    -1571.6866454323
        RIMP2         total energy =     -1576.3569382623 a.u.

                    Orbital Energies (a.u.)
 --------------------------------------------------------------

 Alpha MOs
 -- Occupied --
-91.9676 -20.5584 -20.5473 -20.5426 -20.5417 -15.6320 -15.6224 -11.4025
-11.3881 -11.3846 -11.3803 -11.3130 -11.3101 -11.3099 -11.3064 -11.2997
-11.2924 -11.2912 -11.2708 -11.2706 -11.2669 -11.2656 -11.2601 -11.2544
-11.2529 -11.2465 -11.2362  -8.9677  -6.6482  -6.6467  -6.6457  -1.4350
 -1.4133  -1.4042  -1.3924  -1.2691  -1.2567  -1.2319  -1.1854  -1.1453
 -1.1163  -1.0866  -1.0498  -0.9949  -0.9898  -0.9746  -0.9570  -0.9475
 -0.8995  -0.8917  -0.8803  -0.8636  -0.7922  -0.7828  -0.7765  -0.7581
 -0.7314  -0.7279  -0.7017  -0.6898  -0.6889  -0.6769  -0.6693  -0.6596
 -0.6522  -0.6462  -0.6381  -0.6343  -0.6333  -0.6325  -0.6235  -0.6066
 -0.5906  -0.5718  -0.5679  -0.5636  -0.5560  -0.5541  -0.5537  -0.5503
 -0.5487  -0.5459  -0.5219  -0.5137  -0.5123  -0.4891  -0.4779  -0.4646
 -0.4564  -0.4449  -0.4384  -0.4202  -0.4087  -0.3791  -0.3559  -0.3381
 -0.3264  -0.2760

          Ground-State Mulliken Net Atomic Charges

     Atom                 Charge (a.u.)
  ----------------------------------------
      1 C                    -0.084261
      2 C                    -0.028953
      3 C                    -0.106316
      4 C                    -0.120439
      5 H                     0.199947
      6 C                     0.026276
      7 C                     0.124807
      8 C                    -0.098373
      9 C                    -0.191373
     10 C                    -0.139101
     11 C                     0.200419
     12 H                     0.194555
     13 C                     0.342129
     14 C                     0.348528
     15 N                    -0.090274
     16 C                     0.358401
     17 C                     0.385460
     18 N                    -0.087330
     19 O                    -0.493981
     20 O                    -0.507470
     21 O                    -0.498518
     22 O                    -0.441307
     23 C                    -0.204797
     24 H                     0.139716
     25 H                     0.109601
     26 H                     0.109326
     27 C                    -0.199141
     28 H                     0.135484
     29 H                     0.112901
     30 H                     0.113556
     31 C                    -0.025881
     32 S                     0.077764
     33 C                    -0.269958
     34 C                    -0.207702
     35 C                    -0.234045
     36 H                     0.178624
     37 H                     0.179580
     38 H                     0.199986
     39 H                     0.138647
     40 H                     0.139044
     41 H                     0.214467
  ----------------------------------------
  Sum of atomic charges =     0.000000

                    Cartesian Multipole Moments
 -----------------------------------------------------------------
    Charge (ESU x 10^10)
                 0.0000
    Dipole Moment (Debye)
         X      -0.6830      Y       0.0037      Z       1.3135
       Tot       1.4805
    Quadrupole Moments (Debye-Ang)
        XX    -162.1005     XY       3.3158     YY    -178.2479
        XZ       0.1520     YZ     -10.1138     ZZ    -185.9044

 Total job time:  305.59s(wall), 9267.62s(cpu)
        *  Thank you very much for using Q-Chem.  Have a nice day.  *
