 Q-Chem 5.4, Q-Chem, Inc., Pleasanton, CA (2021)
 Q-Chem 5.4.0 for Intel X86 EM64T Linux

User input:
--------------------------------------------------------------
$molecule
0 1
C	-0.253280	-6.741404	-0.043160
C	-1.539213	-6.155638	-0.269777
C	0.814295	-5.791452	0.145543
C	-1.813519	-4.803786	-0.318377
H	-2.403941	-6.821518	-0.422058
C	0.527140	-4.378638	0.094194
C	-0.783072	-3.838032	-0.137191
C	1.556403	-3.413062	0.275104
C	-1.067932	-2.426473	-0.188116
C	1.285420	-2.059348	0.226701
C	0.000000	-1.478216	0.000000
H	2.151147	-1.394783	0.378931
C	2.234582	-6.187987	0.397845
C	2.965273	-3.798164	0.523637
N	3.204744	-5.170003	0.567586
C	-3.226257	-4.424987	-0.567421
C	-2.489446	-2.036627	-0.439541
N	-3.459801	-3.049156	-0.609650
O	2.619468	-7.353131	0.468608
O	3.874668	-2.986854	0.683034
O	-4.124806	-5.248946	-0.725131
O	-2.895819	-0.878829	-0.512648
C	4.595691	-5.563799	0.813908
H	4.640022	-6.664085	0.822891
H	4.934830	-5.147101	1.781600
H	5.246157	-5.148785	0.020360
C	-4.829716	-2.587487	-0.851649
H	-5.462742	-3.483329	-0.962191
H	-4.863242	-1.964972	-1.765865
H	-5.173521	-1.962932	-0.005383
C	0.000000	0.000000	0.000000
S	0.509686	0.607733	1.580530
C	1.562368	1.862312	0.904911
C	0.641367	0.764613	-0.985400
C	1.489926	1.776040	-0.493528
H	0.489914	0.584081	-2.059934
H	2.056124	2.450920	-1.152593
H	2.128395	2.537007	1.556025
H	0.008120	-7.361589	-0.909181
H	-0.304668	-7.361192	0.860264
H	0.188062	-1.478831	-1.063500
$end

$rem
JOBTYPE		SP
EXCHANGE	HF
CORRELATION	pRIMP2
BASIS		cc-pvtz
METHOD		rimp2
AUX_BASIS	rimp2-cc-pvtz
SOLVENT_METHOD	PCM
PURECART	11111
SYMMETRY	false
MEM_TOTAL	110000
SCF_CONVERGENCE = 6
THRESH=10
GUI = 2
$end

$solvent
dielectric 4.90
$end
--------------------------------------------------------------

             Standard Nuclear Orientation (Angstroms)
    I     Atom           X                Y                Z
 ----------------------------------------------------------------
    1      C      -0.2532800000    -6.7414040000    -0.0431600000
    2      C      -1.5392130000    -6.1556380000    -0.2697770000
    3      C       0.8142950000    -5.7914520000     0.1455430000
    4      C      -1.8135190000    -4.8037860000    -0.3183770000
    5      H      -2.4039410000    -6.8215180000    -0.4220580000
    6      C       0.5271400000    -4.3786380000     0.0941940000
    7      C      -0.7830720000    -3.8380320000    -0.1371910000
    8      C       1.5564030000    -3.4130620000     0.2751040000
    9      C      -1.0679320000    -2.4264730000    -0.1881160000
   10      C       1.2854200000    -2.0593480000     0.2267010000
   11      C       0.0000000000    -1.4782160000     0.0000000000
   12      H       2.1511470000    -1.3947830000     0.3789310000
   13      C       2.2345820000    -6.1879870000     0.3978450000
   14      C       2.9652730000    -3.7981640000     0.5236370000
   15      N       3.2047440000    -5.1700030000     0.5675860000
   16      C      -3.2262570000    -4.4249870000    -0.5674210000
   17      C      -2.4894460000    -2.0366270000    -0.4395410000
   18      N      -3.4598010000    -3.0491560000    -0.6096500000
   19      O       2.6194680000    -7.3531310000     0.4686080000
   20      O       3.8746680000    -2.9868540000     0.6830340000
   21      O      -4.1248060000    -5.2489460000    -0.7251310000
   22      O      -2.8958190000    -0.8788290000    -0.5126480000
   23      C       4.5956910000    -5.5637990000     0.8139080000
   24      H       4.6400220000    -6.6640850000     0.8228910000
   25      H       4.9348300000    -5.1471010000     1.7816000000
   26      H       5.2461570000    -5.1487850000     0.0203600000
   27      C      -4.8297160000    -2.5874870000    -0.8516490000
   28      H      -5.4627420000    -3.4833290000    -0.9621910000
   29      H      -4.8632420000    -1.9649720000    -1.7658650000
   30      H      -5.1735210000    -1.9629320000    -0.0053830000
   31      C       0.0000000000     0.0000000000     0.0000000000
   32      S       0.5096860000     0.6077330000     1.5805300000
   33      C       1.5623680000     1.8623120000     0.9049110000
   34      C       0.6413670000     0.7646130000    -0.9854000000
   35      C       1.4899260000     1.7760400000    -0.4935280000
   36      H       0.4899140000     0.5840810000    -2.0599340000
   37      H       2.0561240000     2.4509200000    -1.1525930000
   38      H       2.1283950000     2.5370070000     1.5560250000
   39      H       0.0081200000    -7.3615890000    -0.9091810000
   40      H      -0.3046680000    -7.3611920000     0.8602640000
   41      H       0.1880620000    -1.4788310000    -1.0635000000
 ----------------------------------------------------------------

   11   -1571.7234639490      5.46e-07  Convergence criterion met
 Total energy in the final basis set =    -1571.7234639490
        RIMP2         total energy =     -1576.3844713358 a.u.

                    Orbital Energies (a.u.)
 --------------------------------------------------------------

 Alpha MOs
 -- Occupied --
-91.9895 -20.5522 -20.5437 -20.5410 -20.5402 -15.6263 -15.6207 -11.3926
-11.3843 -11.3828 -11.3788 -11.3077 -11.3048 -11.3035 -11.3022 -11.2943
-11.2913 -11.2895 -11.2863 -11.2675 -11.2666 -11.2640 -11.2640 -11.2624
-11.2592 -11.2543 -11.2515  -8.9896  -6.6703  -6.6697  -6.6693  -1.4189
 -1.4117  -1.3965  -1.3909  -1.2613  -1.2549  -1.2301  -1.1900  -1.1526
 -1.1128  -1.0847  -1.0453  -0.9978  -0.9898  -0.9870  -0.9547  -0.9494
 -0.8958  -0.8863  -0.8751  -0.8579  -0.7950  -0.7775  -0.7697  -0.7644
 -0.7425  -0.7171  -0.7040  -0.6910  -0.6823  -0.6710  -0.6658  -0.6567
 -0.6461  -0.6430  -0.6349  -0.6333  -0.6299  -0.6266  -0.6210  -0.6043
 -0.5835  -0.5771  -0.5704  -0.5608  -0.5560  -0.5508  -0.5504  -0.5478
 -0.5471  -0.5429  -0.5216  -0.5108  -0.5035  -0.4833  -0.4749  -0.4632
 -0.4582  -0.4506  -0.4422  -0.4336  -0.4128  -0.4068  -0.3617  -0.3467
 -0.3307  -0.2879

          Ground-State Mulliken Net Atomic Charges

     Atom                 Charge (a.u.)
  ----------------------------------------
      1 C                    -0.085854
      2 C                    -0.034828
      3 C                    -0.111288
      4 C                    -0.119997
      5 H                     0.197757
      6 C                     0.018938
      7 C                     0.121158
      8 C                    -0.111618
      9 C                    -0.187965
     10 C                    -0.101411
     11 C                     0.141701
     12 H                     0.200872
     13 C                     0.343848
     14 C                     0.342053
     15 N                    -0.089679
     16 C                     0.356723
     17 C                     0.353835
     18 N                    -0.091717
     19 O                    -0.495278
     20 O                    -0.507956
     21 O                    -0.502041
     22 O                    -0.469674
     23 C                    -0.205198
     24 H                     0.139490
     25 H                     0.109097
     26 H                     0.108705
     27 C                    -0.197573
     28 H                     0.133015
     29 H                     0.110870
     30 H                     0.111947
     31 C                     0.017505
     32 S                     0.013098
     33 C                    -0.186629
     34 C                    -0.186929
     35 C                    -0.199855
     36 H                     0.185447
     37 H                     0.194534
     38 H                     0.212294
     39 H                     0.136412
     40 H                     0.136734
     41 H                     0.199459
  ----------------------------------------
  Sum of atomic charges =     0.000000

                    Cartesian Multipole Moments
 -----------------------------------------------------------------
    Charge (ESU x 10^10)
                 0.0000
    Dipole Moment (Debye)
         X       0.8629      Y       2.5712      Z      -1.9455
       Tot       3.3377
    Quadrupole Moments (Debye-Ang)
        XX    -190.5429     XY      14.2126     YY    -184.1922
        XZ      -5.2147     YZ       3.3223     ZZ    -156.9269

 Total job time:  305.78s(wall), 8959.53s(cpu)
        *  Thank you very much for using Q-Chem.  Have a nice day.  *
