 Q-Chem 5.4, Q-Chem, Inc., Pleasanton, CA (2021)
 Q-Chem 5.4.0 for Intel X86 EM64T Linux

User input:
--------------------------------------------------------------
$molecule
0 1
C	0.240927	-6.741404	-0.089263
C	1.467886	-6.155638	-0.535973
C	-0.777972	-5.791452	0.281103
C	1.729742	-4.803786	-0.631036
H	2.292903	-6.821518	-0.836458
C	-0.503614	-4.378638	0.181995
C	0.746756	-3.838032	-0.272725
C	-1.485437	-3.413062	0.539954
C	1.018915	-2.426473	-0.371053
C	-1.226557	-2.059348	0.446381
C	-0.000000	-1.478216	-0.000000
H	-2.052413	-1.394783	0.747410
C	-2.134128	-6.187987	0.772747
C	-2.829820	-3.798164	1.029154
N	-3.059182	-5.170003	1.110828
C	3.077731	-4.424987	-1.121728
C	2.375694	-2.036627	-0.864069
N	3.301101	-3.049156	-1.201928
O	-2.502830	-7.353131	0.903908
O	-3.697078	-2.986854	1.345809
O	3.934752	-5.248946	-1.434422
O	2.764177	-0.878829	-1.003943
C	-4.386939	-5.563799	1.592981
H	-4.429822	-6.664085	1.607367
H	-5.164489	-5.147101	0.924504
H	-4.553486	-5.148785	2.605446
C	4.608481	-2.587487	-1.677308
H	5.211969	-3.483329	-1.898089
H	5.094624	-1.964972	-0.902337
H	4.483092	-1.962932	-2.582098
C	0.000000	0.000000	0.000000
S	0.335026	0.718942	1.580530
C	1.027130	2.203226	0.904911
C	0.421617	0.904557	-0.985400
C	0.979485	2.101144	-0.493528
H	0.322049	0.690978	-2.059934
H	1.351718	2.899571	-1.152593
H	1.399246	3.001430	1.556025
H	0.447559	-7.361589	0.791434
H	-0.166282	-7.361192	-0.897345
H	0.368883	-1.478831	1.015049
$end

$rem
JOBTYPE		SP
EXCHANGE	HF
CORRELATION	pRIMP2
BASIS		cc-pvtz
METHOD		rimp2
AUX_BASIS	rimp2-cc-pvtz
SOLVENT_METHOD	PCM
PURECART	11111
SYMMETRY	false
MEM_TOTAL	110000
SCF_CONVERGENCE = 6
THRESH=10
GUI = 2
$end

$solvent
dielectric 4.90
$end
--------------------------------------------------------------

             Standard Nuclear Orientation (Angstroms)
    I     Atom           X                Y                Z
 ----------------------------------------------------------------
    1      C       0.2409270000    -6.7414040000    -0.0892630000
    2      C       1.4678860000    -6.1556380000    -0.5359730000
    3      C      -0.7779720000    -5.7914520000     0.2811030000
    4      C       1.7297420000    -4.8037860000    -0.6310360000
    5      H       2.2929030000    -6.8215180000    -0.8364580000
    6      C      -0.5036140000    -4.3786380000     0.1819950000
    7      C       0.7467560000    -3.8380320000    -0.2727250000
    8      C      -1.4854370000    -3.4130620000     0.5399540000
    9      C       1.0189150000    -2.4264730000    -0.3710530000
   10      C      -1.2265570000    -2.0593480000     0.4463810000
   11      C       0.0000000000    -1.4782160000     0.0000000000
   12      H      -2.0524130000    -1.3947830000     0.7474100000
   13      C      -2.1341280000    -6.1879870000     0.7727470000
   14      C      -2.8298200000    -3.7981640000     1.0291540000
   15      N      -3.0591820000    -5.1700030000     1.1108280000
   16      C       3.0777310000    -4.4249870000    -1.1217280000
   17      C       2.3756940000    -2.0366270000    -0.8640690000
   18      N       3.3011010000    -3.0491560000    -1.2019280000
   19      O      -2.5028300000    -7.3531310000     0.9039080000
   20      O      -3.6970780000    -2.9868540000     1.3458090000
   21      O       3.9347520000    -5.2489460000    -1.4344220000
   22      O       2.7641770000    -0.8788290000    -1.0039430000
   23      C      -4.3869390000    -5.5637990000     1.5929810000
   24      H      -4.4298220000    -6.6640850000     1.6073670000
   25      H      -5.1644890000    -5.1471010000     0.9245040000
   26      H      -4.5534860000    -5.1487850000     2.6054460000
   27      C       4.6084810000    -2.5874870000    -1.6773080000
   28      H       5.2119690000    -3.4833290000    -1.8980890000
   29      H       5.0946240000    -1.9649720000    -0.9023370000
   30      H       4.4830920000    -1.9629320000    -2.5820980000
   31      C       0.0000000000     0.0000000000     0.0000000000
   32      S       0.3350260000     0.7189420000     1.5805300000
   33      C       1.0271300000     2.2032260000     0.9049110000
   34      C       0.4216170000     0.9045570000    -0.9854000000
   35      C       0.9794850000     2.1011440000    -0.4935280000
   36      H       0.3220490000     0.6909780000    -2.0599340000
   37      H       1.3517180000     2.8995710000    -1.1525930000
   38      H       1.3992460000     3.0014300000     1.5560250000
   39      H       0.4475590000    -7.3615890000     0.7914340000
   40      H      -0.1662820000    -7.3611920000    -0.8973450000
   41      H       0.3688830000    -1.4788310000     1.0150490000
 ----------------------------------------------------------------

   11   -1571.7315440101      5.65e-07  Convergence criterion met
 Total energy in the final basis set =    -1571.7315440101
        RIMP2         total energy =     -1576.3891956542 a.u.

                    Orbital Energies (a.u.)
 --------------------------------------------------------------

 Alpha MOs
 -- Occupied --
-91.9912 -20.5502 -20.5441 -20.5407 -20.5394 -15.6263 -15.6203 -11.3922
-11.3847 -11.3826 -11.3779 -11.3075 -11.3060 -11.3041 -11.3038 -11.2958
-11.2869 -11.2861 -11.2853 -11.2675 -11.2675 -11.2628 -11.2624 -11.2588
-11.2562 -11.2520 -11.2502  -8.9912  -6.6721  -6.6715  -6.6709  -1.4186
 -1.4112  -1.3965  -1.3904  -1.2614  -1.2545  -1.2290  -1.1869  -1.1519
 -1.1128  -1.0856  -1.0455  -0.9958  -0.9871  -0.9849  -0.9544  -0.9503
 -0.8949  -0.8854  -0.8760  -0.8592  -0.7918  -0.7747  -0.7726  -0.7683
 -0.7394  -0.7155  -0.7034  -0.6905  -0.6757  -0.6700  -0.6666  -0.6565
 -0.6463  -0.6418  -0.6372  -0.6309  -0.6302  -0.6260  -0.6223  -0.6042
 -0.5840  -0.5739  -0.5670  -0.5607  -0.5560  -0.5507  -0.5493  -0.5471
 -0.5464  -0.5433  -0.5224  -0.5135  -0.5064  -0.4796  -0.4735  -0.4686
 -0.4558  -0.4502  -0.4419  -0.4338  -0.4129  -0.4067  -0.3545  -0.3509
 -0.3284  -0.2865

          Ground-State Mulliken Net Atomic Charges

     Atom                 Charge (a.u.)
  ----------------------------------------
      1 C                    -0.084581
      2 C                    -0.030434
      3 C                    -0.115063
      4 C                    -0.121052
      5 H                     0.198274
      6 C                     0.007551
      7 C                     0.118418
      8 C                    -0.062663
      9 C                    -0.139355
     10 C                    -0.174852
     11 C                     0.227272
     12 H                     0.192983
     13 C                     0.343349
     14 C                     0.348770
     15 N                    -0.089551
     16 C                     0.356838
     17 C                     0.359274
     18 N                    -0.089509
     19 O                    -0.495677
     20 O                    -0.508141
     21 O                    -0.502092
     22 O                    -0.470370
     23 C                    -0.204951
     24 H                     0.139224
     25 H                     0.108977
     26 H                     0.108912
     27 C                    -0.197567
     28 H                     0.133275
     29 H                     0.111539
     30 H                     0.110643
     31 C                    -0.075049
     32 S                     0.006019
     33 C                    -0.206316
     34 C                    -0.165744
     35 C                    -0.190197
     36 H                     0.184391
     37 H                     0.189499
     38 H                     0.213601
     39 H                     0.136997
     40 H                     0.137225
     41 H                     0.190129
  ----------------------------------------
  Sum of atomic charges =     0.000000

                    Cartesian Multipole Moments
 -----------------------------------------------------------------
    Charge (ESU x 10^10)
                 0.0000
    Dipole Moment (Debye)
         X       2.2795      Y       2.6977      Z      -0.7735
       Tot       3.6156
    Quadrupole Moments (Debye-Ang)
        XX    -190.3205     XY      -4.3725     YY    -181.0012
        XZ      11.1543     YZ       2.6076     ZZ    -160.0855

 Total job time:  295.35s(wall), 8969.73s(cpu)
        *  Thank you very much for using Q-Chem.  Have a nice day.  *
