 Q-Chem 5.4, Q-Chem, Inc., Pleasanton, CA (2021)
 Q-Chem 5.4.0 for Intel X86 EM64T Linux

User input:
--------------------------------------------------------------
$molecule
0 1
C	-0.195868	-6.741404	0.166281
C	-1.196048	-6.155638	1.005696
C	0.634911	-5.791452	-0.530233
C	-1.409599	-4.803786	1.184587
H	-1.868538	-6.821518	1.570232
C	0.410996	-4.378638	-0.343266
C	-0.608444	-3.838032	0.511683
C	1.211179	-3.413062	-1.015440
C	-0.830559	-2.426473	0.697165
C	0.999915	-2.059348	-0.838968
C	0.000000	-1.478216	0.000000
H	1.673009	-1.394783	-1.404302
C	1.741129	-6.187987	-1.456059
C	2.307170	-3.798164	-1.934944
N	2.494766	-5.170003	-2.090139
C	-2.508468	-4.424987	2.106725
C	-1.936893	-2.036627	1.624494
N	-2.690936	-3.049156	2.258486
O	2.042736	-7.353131	-1.705414
O	3.013823	-2.986854	-2.529122
O	-3.206857	-5.248946	2.693680
O	-2.254108	-0.878829	1.888802
C	3.577543	-5.563799	-2.997334
H	3.612920	-6.664085	-3.025519
H	4.536833	-5.147101	-2.635109
H	3.387762	-5.148785	-4.005702
C	-3.756883	-2.587487	3.152347
H	-4.248464	-3.483329	3.566218
H	-4.478763	-1.964972	2.590383
H	-3.329599	-1.962932	3.959687
C	0.000000	0.000000	0.000000
S	0.509686	0.607733	1.580530
C	1.562368	1.862312	0.904911
C	0.641367	0.764613	-0.985400
C	1.489926	1.776040	-0.493528
H	0.489914	0.584081	-2.059934
H	2.056124	2.450920	-1.152593
H	2.128395	2.537007	1.556025
H	-0.691254	-7.361589	-0.590631
H	0.463164	-7.361192	0.786357
H	-0.693804	-1.478831	-0.827669
$end

$rem
JOBTYPE		SP
EXCHANGE	HF
CORRELATION	pRIMP2
BASIS		cc-pvtz
METHOD		rimp2
AUX_BASIS	rimp2-cc-pvtz
SOLVENT_METHOD	PCM
PURECART	11111
SYMMETRY	false
MEM_TOTAL	110000
SCF_CONVERGENCE = 6
THRESH=10
GUI = 2
$end

$solvent
dielectric 4.90
$end
--------------------------------------------------------------

             Standard Nuclear Orientation (Angstroms)
    I     Atom           X                Y                Z
 ----------------------------------------------------------------
    1      C      -0.1958680000    -6.7414040000     0.1662810000
    2      C      -1.1960480000    -6.1556380000     1.0056960000
    3      C       0.6349110000    -5.7914520000    -0.5302330000
    4      C      -1.4095990000    -4.8037860000     1.1845870000
    5      H      -1.8685380000    -6.8215180000     1.5702320000
    6      C       0.4109960000    -4.3786380000    -0.3432660000
    7      C      -0.6084440000    -3.8380320000     0.5116830000
    8      C       1.2111790000    -3.4130620000    -1.0154400000
    9      C      -0.8305590000    -2.4264730000     0.6971650000
   10      C       0.9999150000    -2.0593480000    -0.8389680000
   11      C       0.0000000000    -1.4782160000     0.0000000000
   12      H       1.6730090000    -1.3947830000    -1.4043020000
   13      C       1.7411290000    -6.1879870000    -1.4560590000
   14      C       2.3071700000    -3.7981640000    -1.9349440000
   15      N       2.4947660000    -5.1700030000    -2.0901390000
   16      C      -2.5084680000    -4.4249870000     2.1067250000
   17      C      -1.9368930000    -2.0366270000     1.6244940000
   18      N      -2.6909360000    -3.0491560000     2.2584860000
   19      O       2.0427360000    -7.3531310000    -1.7054140000
   20      O       3.0138230000    -2.9868540000    -2.5291220000
   21      O      -3.2068570000    -5.2489460000     2.6936800000
   22      O      -2.2541080000    -0.8788290000     1.8888020000
   23      C       3.5775430000    -5.5637990000    -2.9973340000
   24      H       3.6129200000    -6.6640850000    -3.0255190000
   25      H       4.5368330000    -5.1471010000    -2.6351090000
   26      H       3.3877620000    -5.1487850000    -4.0057020000
   27      C      -3.7568830000    -2.5874870000     3.1523470000
   28      H      -4.2484640000    -3.4833290000     3.5662180000
   29      H      -4.4787630000    -1.9649720000     2.5903830000
   30      H      -3.3295990000    -1.9629320000     3.9596870000
   31      C       0.0000000000     0.0000000000     0.0000000000
   32      S       0.5096860000     0.6077330000     1.5805300000
   33      C       1.5623680000     1.8623120000     0.9049110000
   34      C       0.6413670000     0.7646130000    -0.9854000000
   35      C       1.4899260000     1.7760400000    -0.4935280000
   36      H       0.4899140000     0.5840810000    -2.0599340000
   37      H       2.0561240000     2.4509200000    -1.1525930000
   38      H       2.1283950000     2.5370070000     1.5560250000
   39      H      -0.6912540000    -7.3615890000    -0.5906310000
   40      H       0.4631640000    -7.3611920000     0.7863570000
   41      H      -0.6938040000    -1.4788310000    -0.8276690000
 ----------------------------------------------------------------

   11   -1571.7188674097      5.70e-07  Convergence criterion met
 Total energy in the final basis set =    -1571.7188674097
        RIMP2         total energy =     -1576.3825256336 a.u.

                    Orbital Energies (a.u.)
 --------------------------------------------------------------

 Alpha MOs
 -- Occupied --
-91.9856 -20.5533 -20.5442 -20.5403 -20.5398 -15.6270 -15.6207 -11.3940
-11.3849 -11.3823 -11.3784 -11.3077 -11.3073 -11.3044 -11.3038 -11.2960
-11.2891 -11.2879 -11.2871 -11.2675 -11.2667 -11.2636 -11.2626 -11.2626
-11.2592 -11.2524 -11.2518  -8.9856  -6.6664  -6.6657  -6.6653  -1.4202
 -1.4114  -1.3975  -1.3905  -1.2621  -1.2547  -1.2302  -1.1889  -1.1524
 -1.1133  -1.0853  -1.0461  -0.9970  -0.9880  -0.9865  -0.9549  -0.9497
 -0.8961  -0.8873  -0.8760  -0.8587  -0.7929  -0.7767  -0.7717  -0.7652
 -0.7384  -0.7165  -0.7037  -0.6918  -0.6818  -0.6727  -0.6666  -0.6568
 -0.6466  -0.6440  -0.6368  -0.6327  -0.6302  -0.6272  -0.6208  -0.6051
 -0.5851  -0.5748  -0.5716  -0.5615  -0.5576  -0.5512  -0.5503  -0.5472
 -0.5461  -0.5435  -0.5255  -0.5101  -0.5060  -0.4800  -0.4733  -0.4604
 -0.4560  -0.4506  -0.4420  -0.4338  -0.4132  -0.4068  -0.3541  -0.3517
 -0.3320  -0.2822

          Ground-State Mulliken Net Atomic Charges

     Atom                 Charge (a.u.)
  ----------------------------------------
      1 C                    -0.084845
      2 C                    -0.031783
      3 C                    -0.112896
      4 C                    -0.122430
      5 H                     0.198607
      6 C                     0.022210
      7 C                     0.119341
      8 C                    -0.092321
      9 C                    -0.185325
     10 C                    -0.157437
     11 C                     0.207424
     12 H                     0.196538
     13 C                     0.340993
     14 C                     0.348180
     15 N                    -0.089327
     16 C                     0.356529
     17 C                     0.351654
     18 N                    -0.090231
     19 O                    -0.496713
     20 O                    -0.510239
     21 O                    -0.501477
     22 O                    -0.472504
     23 C                    -0.205251
     24 H                     0.139497
     25 H                     0.108998
     26 H                     0.108559
     27 C                    -0.197854
     28 H                     0.133266
     29 H                     0.111666
     30 H                     0.112069
     31 C                    -0.024716
     32 S                     0.038088
     33 C                    -0.192031
     34 C                    -0.211552
     35 C                    -0.196458
     36 H                     0.195982
     37 H                     0.193126
     38 H                     0.211438
     39 H                     0.136671
     40 H                     0.137147
     41 H                     0.207407
  ----------------------------------------
  Sum of atomic charges =     0.000000

                    Cartesian Multipole Moments
 -----------------------------------------------------------------
    Charge (ESU x 10^10)
                 0.0000
    Dipole Moment (Debye)
         X       0.1022      Y       2.4081      Z      -0.9352
       Tot       2.5853
    Quadrupole Moments (Debye-Ang)
        XX    -177.4735     XY      13.9722     YY    -184.1455
        XZ      17.0499     YZ      -4.5191     ZZ    -169.9745

 Total job time:  314.06s(wall), 10294.70s(cpu)
        *  Thank you very much for using Q-Chem.  Have a nice day.  *
