 Q-Chem 5.4, Q-Chem, Inc., Pleasanton, CA (2021)
 Q-Chem 5.4.0 for Intel X86 EM64T Linux

User input:
--------------------------------------------------------------
$molecule
0 1
C	0.223244	-6.741404	0.127184
C	1.354118	-6.155638	0.779949
C	-0.715408	-5.791452	-0.415271
C	1.595259	-4.803786	0.919437
H	2.114613	-6.821518	1.218801
C	-0.463133	-4.378638	-0.268806
C	0.688925	-3.838032	0.396744
C	-1.368449	-3.413062	-0.790835
C	0.939189	-2.426473	0.542026
C	-1.130363	-2.059348	-0.652669
C	-0.000000	-1.478216	-0.000000
H	-1.891815	-1.394783	-1.091814
C	-1.963749	-6.187987	-1.138124
C	-2.607351	-3.798164	-1.506241
N	-2.817348	-5.170003	-1.629443
C	2.837621	-4.424987	1.636646
C	2.188982	-2.036627	1.264474
N	3.042637	-3.049156	1.756205
O	-2.301222	-7.353131	-1.336258
O	-3.407386	-2.986854	-1.967056
O	3.628041	-5.248946	2.092167
O	2.545844	-0.878829	1.472160
C	-4.040164	-5.563799	-2.336642
H	-4.078749	-6.664085	-2.360245
H	-4.027880	-5.147101	-3.361968
H	-4.922811	-5.148785	-1.813424
C	4.247167	-2.587487	2.452149
H	4.804209	-3.483329	2.772531
H	3.965991	-1.964972	3.322697
H	4.859678	-1.962932	1.774507
C	0.000000	0.000000	0.000000
S	-0.000201	0.793171	1.580530
C	-0.000228	2.430885	0.904911
C	-0.000168	0.997990	-0.985400
C	-0.000267	2.318231	-0.493528
H	-0.000145	0.762343	-2.059934
H	-0.000339	3.199164	-1.152593
H	-0.000311	3.311566	1.556025
H	-0.318588	-7.361589	0.851574
H	0.580522	-7.361192	-0.704181
H	-0.540459	-1.478831	0.935042
$end

$rem
JOBTYPE		SP
EXCHANGE	HF
CORRELATION	pRIMP2
BASIS		cc-pvtz
METHOD		rimp2
AUX_BASIS	rimp2-cc-pvtz
SOLVENT_METHOD	PCM
PURECART	11111
SYMMETRY	false
MEM_TOTAL	110000
SCF_CONVERGENCE = 6
THRESH=10
GUI = 2
$end

$solvent
dielectric 4.90
$end
--------------------------------------------------------------

             Standard Nuclear Orientation (Angstroms)
    I     Atom           X                Y                Z
 ----------------------------------------------------------------
    1      C       0.2232440000    -6.7414040000     0.1271840000
    2      C       1.3541180000    -6.1556380000     0.7799490000
    3      C      -0.7154080000    -5.7914520000    -0.4152710000
    4      C       1.5952590000    -4.8037860000     0.9194370000
    5      H       2.1146130000    -6.8215180000     1.2188010000
    6      C      -0.4631330000    -4.3786380000    -0.2688060000
    7      C       0.6889250000    -3.8380320000     0.3967440000
    8      C      -1.3684490000    -3.4130620000    -0.7908350000
    9      C       0.9391890000    -2.4264730000     0.5420260000
   10      C      -1.1303630000    -2.0593480000    -0.6526690000
   11      C       0.0000000000    -1.4782160000     0.0000000000
   12      H      -1.8918150000    -1.3947830000    -1.0918140000
   13      C      -1.9637490000    -6.1879870000    -1.1381240000
   14      C      -2.6073510000    -3.7981640000    -1.5062410000
   15      N      -2.8173480000    -5.1700030000    -1.6294430000
   16      C       2.8376210000    -4.4249870000     1.6366460000
   17      C       2.1889820000    -2.0366270000     1.2644740000
   18      N       3.0426370000    -3.0491560000     1.7562050000
   19      O      -2.3012220000    -7.3531310000    -1.3362580000
   20      O      -3.4073860000    -2.9868540000    -1.9670560000
   21      O       3.6280410000    -5.2489460000     2.0921670000
   22      O       2.5458440000    -0.8788290000     1.4721600000
   23      C      -4.0401640000    -5.5637990000    -2.3366420000
   24      H      -4.0787490000    -6.6640850000    -2.3602450000
   25      H      -4.0278800000    -5.1471010000    -3.3619680000
   26      H      -4.9228110000    -5.1487850000    -1.8134240000
   27      C       4.2471670000    -2.5874870000     2.4521490000
   28      H       4.8042090000    -3.4833290000     2.7725310000
   29      H       3.9659910000    -1.9649720000     3.3226970000
   30      H       4.8596780000    -1.9629320000     1.7745070000
   31      C       0.0000000000     0.0000000000     0.0000000000
   32      S      -0.0002010000     0.7931710000     1.5805300000
   33      C      -0.0002280000     2.4308850000     0.9049110000
   34      C      -0.0001680000     0.9979900000    -0.9854000000
   35      C      -0.0002670000     2.3182310000    -0.4935280000
   36      H      -0.0001450000     0.7623430000    -2.0599340000
   37      H      -0.0003390000     3.1991640000    -1.1525930000
   38      H      -0.0003110000     3.3115660000     1.5560250000
   39      H      -0.3185880000    -7.3615890000     0.8515740000
   40      H       0.5805220000    -7.3611920000    -0.7041810000
   41      H      -0.5404590000    -1.4788310000     0.9350420000
 ----------------------------------------------------------------

   11   -1571.7433465195      5.71e-07  Convergence criterion met
 Total energy in the final basis set =    -1571.7433465195
        RIMP2         total energy =     -1576.3990530755 a.u.

                    Orbital Energies (a.u.)
 --------------------------------------------------------------

 Alpha MOs
 -- Occupied --
-91.9871 -20.5507 -20.5442 -20.5421 -20.5409 -15.6265 -15.6215 -11.3927
-11.3849 -11.3839 -11.3794 -11.3089 -11.3088 -11.3051 -11.3049 -11.2966
-11.2950 -11.2898 -11.2805 -11.2696 -11.2681 -11.2649 -11.2625 -11.2596
-11.2530 -11.2529 -11.2485  -8.9869  -6.6677  -6.6672  -6.6666  -1.4191
 -1.4125  -1.3969  -1.3917  -1.2618  -1.2557  -1.2300  -1.1863  -1.1516
 -1.1143  -1.0866  -1.0468  -0.9951  -0.9879  -0.9828  -0.9550  -0.9507
 -0.8961  -0.8876  -0.8769  -0.8602  -0.7930  -0.7760  -0.7740  -0.7671
 -0.7347  -0.7175  -0.7035  -0.6912  -0.6788  -0.6706  -0.6677  -0.6572
 -0.6470  -0.6402  -0.6389  -0.6326  -0.6310  -0.6274  -0.6225  -0.6051
 -0.5848  -0.5748  -0.5660  -0.5614  -0.5576  -0.5512  -0.5506  -0.5481
 -0.5459  -0.5436  -0.5183  -0.5168  -0.5095  -0.4822  -0.4746  -0.4648
 -0.4567  -0.4506  -0.4429  -0.4349  -0.4130  -0.4077  -0.3529  -0.3495
 -0.3283  -0.2879

          Ground-State Mulliken Net Atomic Charges

     Atom                 Charge (a.u.)
  ----------------------------------------
      1 C                    -0.084652
      2 C                    -0.030303
      3 C                    -0.109734
      4 C                    -0.124139
      5 H                     0.198946
      6 C                     0.017630
      7 C                     0.118754
      8 C                    -0.100929
      9 C                    -0.182676
     10 C                    -0.119963
     11 C                     0.238214
     12 H                     0.195314
     13 C                     0.343214
     14 C                     0.351334
     15 N                    -0.090191
     16 C                     0.356399
     17 C                     0.359063
     18 N                    -0.090206
     19 O                    -0.493857
     20 O                    -0.507338
     21 O                    -0.501773
     22 O                    -0.466930
     23 C                    -0.204657
     24 H                     0.139513
     25 H                     0.109133
     26 H                     0.109185
     27 C                    -0.197314
     28 H                     0.133099
     29 H                     0.111336
     30 H                     0.111819
     31 C                    -0.072062
     32 S                     0.026668
     33 C                    -0.214979
     34 C                    -0.177854
     35 C                    -0.208912
     36 H                     0.191426
     37 H                     0.190286
     38 H                     0.211184
     39 H                     0.137822
     40 H                     0.137772
     41 H                     0.190362
  ----------------------------------------
  Sum of atomic charges =     0.000000

                    Cartesian Multipole Moments
 -----------------------------------------------------------------
    Charge (ESU x 10^10)
                 0.0000
    Dipole Moment (Debye)
         X       0.5262      Y       2.0902      Z       0.2703
       Tot       2.1723
    Quadrupole Moments (Debye-Ang)
        XX    -187.6541     XY      -6.6554     YY    -177.3868
        XZ     -14.0737     YZ      -4.6633     ZZ    -164.3622

 Total job time:  307.99s(wall), 8668.44s(cpu)
        *  Thank you very much for using Q-Chem.  Have a nice day.  *
