 Q-Chem 5.4, Q-Chem, Inc., Pleasanton, CA (2021)
 Q-Chem 5.4.0 for Intel X86 EM64T Linux

User input:
--------------------------------------------------------------
$molecule
0 1
C	0.129743	-6.741404	0.221766
C	0.782726	-6.155638	1.352515
C	-0.411926	-5.791452	-0.717339
C	0.921816	-4.803786	1.593885
H	1.221908	-6.821518	2.112819
C	-0.266682	-4.378638	-0.464360
C	0.398255	-3.838032	0.688053
C	-0.789694	-3.413062	-1.369108
C	0.542349	-2.426473	0.939002
C	-0.652589	-2.059348	-1.130409
C	0.000000	-1.478216	0.000000
H	-1.092453	-1.394783	-1.891446
C	-1.131595	-6.187987	-1.967519
C	-1.504912	-3.798164	-2.608118
N	-1.625174	-5.170003	-2.819813
C	1.639129	-4.424987	2.836188
C	1.263477	-2.036627	2.189558
N	1.756898	-3.049156	3.042237
O	-1.324787	-7.353131	-2.307845
O	-1.967354	-2.986854	-3.407213
O	2.095892	-5.248946	3.625890
O	1.468685	-0.878829	2.547850
C	-2.330564	-5.563799	-4.043674
H	-2.352178	-6.664085	-4.083407
H	-1.807263	-5.147101	-4.925490
H	-3.356568	-5.148785	-4.031877
C	2.452080	-2.587487	4.247206
H	2.774302	-3.483329	4.803187
H	1.773301	-1.964972	4.860536
H	3.321351	-1.962932	3.966607
C	0.000000	0.000000	0.000000
S	0.205093	0.766196	1.580530
C	0.628939	2.348114	0.904911
C	0.258137	0.964028	-0.985400
C	0.599745	2.239309	-0.493528
H	0.197169	0.736404	-2.059934
H	0.827678	3.090243	-1.152593
H	0.856796	3.198808	1.556025
H	-0.701693	-7.361589	0.578191
H	0.854838	-7.361192	-0.319578
H	-0.935572	-1.478831	0.539540
$end

$rem
JOBTYPE		SP
EXCHANGE	HF
CORRELATION	pRIMP2
BASIS		cc-pvtz
METHOD		rimp2
AUX_BASIS	rimp2-cc-pvtz
SOLVENT_METHOD	PCM
PURECART	11111
SYMMETRY	false
MEM_TOTAL	110000
SCF_CONVERGENCE = 6
THRESH=10
GUI = 2
$end

$solvent
dielectric 4.90
$end
--------------------------------------------------------------

             Standard Nuclear Orientation (Angstroms)
    I     Atom           X                Y                Z
 ----------------------------------------------------------------
    1      C       0.1297430000    -6.7414040000     0.2217660000
    2      C       0.7827260000    -6.1556380000     1.3525150000
    3      C      -0.4119260000    -5.7914520000    -0.7173390000
    4      C       0.9218160000    -4.8037860000     1.5938850000
    5      H       1.2219080000    -6.8215180000     2.1128190000
    6      C      -0.2666820000    -4.3786380000    -0.4643600000
    7      C       0.3982550000    -3.8380320000     0.6880530000
    8      C      -0.7896940000    -3.4130620000    -1.3691080000
    9      C       0.5423490000    -2.4264730000     0.9390020000
   10      C      -0.6525890000    -2.0593480000    -1.1304090000
   11      C       0.0000000000    -1.4782160000     0.0000000000
   12      H      -1.0924530000    -1.3947830000    -1.8914460000
   13      C      -1.1315950000    -6.1879870000    -1.9675190000
   14      C      -1.5049120000    -3.7981640000    -2.6081180000
   15      N      -1.6251740000    -5.1700030000    -2.8198130000
   16      C       1.6391290000    -4.4249870000     2.8361880000
   17      C       1.2634770000    -2.0366270000     2.1895580000
   18      N       1.7568980000    -3.0491560000     3.0422370000
   19      O      -1.3247870000    -7.3531310000    -2.3078450000
   20      O      -1.9673540000    -2.9868540000    -3.4072130000
   21      O       2.0958920000    -5.2489460000     3.6258900000
   22      O       1.4686850000    -0.8788290000     2.5478500000
   23      C      -2.3305640000    -5.5637990000    -4.0436740000
   24      H      -2.3521780000    -6.6640850000    -4.0834070000
   25      H      -1.8072630000    -5.1471010000    -4.9254900000
   26      H      -3.3565680000    -5.1487850000    -4.0318770000
   27      C       2.4520800000    -2.5874870000     4.2472060000
   28      H       2.7743020000    -3.4833290000     4.8031870000
   29      H       1.7733010000    -1.9649720000     4.8605360000
   30      H       3.3213510000    -1.9629320000     3.9666070000
   31      C       0.0000000000     0.0000000000     0.0000000000
   32      S       0.2050930000     0.7661960000     1.5805300000
   33      C       0.6289390000     2.3481140000     0.9049110000
   34      C       0.2581370000     0.9640280000    -0.9854000000
   35      C       0.5997450000     2.2393090000    -0.4935280000
   36      H       0.1971690000     0.7364040000    -2.0599340000
   37      H       0.8276780000     3.0902430000    -1.1525930000
   38      H       0.8567960000     3.1988080000     1.5560250000
   39      H      -0.7016930000    -7.3615890000     0.5781910000
   40      H       0.8548380000    -7.3611920000    -0.3195780000
   41      H      -0.9355720000    -1.4788310000     0.5395400000
 ----------------------------------------------------------------

   11   -1571.6977847669      5.99e-07  Convergence criterion met
 Total energy in the final basis set =    -1571.6977847669
        RIMP2         total energy =     -1576.3675030386 a.u.

                    Orbital Energies (a.u.)
 --------------------------------------------------------------

 Alpha MOs
 -- Occupied --
-91.9756 -20.5511 -20.5457 -20.5420 -20.5409 -15.6291 -15.6217 -11.3975
-11.3864 -11.3840 -11.3795 -11.3112 -11.3089 -11.3074 -11.3055 -11.2983
-11.2891 -11.2874 -11.2699 -11.2694 -11.2693 -11.2653 -11.2642 -11.2597
-11.2536 -11.2463 -11.2368  -8.9760  -6.6564  -6.6556  -6.6550  -1.4268
 -1.4126  -1.4012  -1.3917  -1.2655  -1.2560  -1.2303  -1.1845  -1.1467
 -1.1150  -1.0860  -1.0482  -0.9936  -0.9888  -0.9763  -0.9558  -0.9482
 -0.8971  -0.8895  -0.8788  -0.8620  -0.7911  -0.7793  -0.7744  -0.7610
 -0.7307  -0.7217  -0.7012  -0.6901  -0.6860  -0.6718  -0.6683  -0.6583
 -0.6500  -0.6431  -0.6385  -0.6328  -0.6318  -0.6301  -0.6239  -0.6053
 -0.5877  -0.5718  -0.5649  -0.5620  -0.5579  -0.5527  -0.5522  -0.5488
 -0.5481  -0.5447  -0.5173  -0.5146  -0.5113  -0.4853  -0.4776  -0.4623
 -0.4554  -0.4445  -0.4378  -0.4275  -0.4100  -0.4078  -0.3543  -0.3283
 -0.3193  -0.2799

          Ground-State Mulliken Net Atomic Charges

     Atom                 Charge (a.u.)
  ----------------------------------------
      1 C                    -0.084452
      2 C                    -0.028165
      3 C                    -0.110126
      4 C                    -0.123459
      5 H                     0.199495
      6 C                     0.020241
      7 C                     0.121760
      8 C                    -0.103169
      9 C                    -0.216100
     10 C                    -0.139945
     11 C                     0.242047
     12 H                     0.194939
     13 C                     0.342944
     14 C                     0.350513
     15 N                    -0.089944
     16 C                     0.357407
     17 C                     0.402973
     18 N                    -0.090322
     19 O                    -0.494303
     20 O                    -0.507493
     21 O                    -0.500509
     22 O                    -0.456353
     23 C                    -0.204697
     24 H                     0.139542
     25 H                     0.109251
     26 H                     0.109219
     27 C                    -0.198445
     28 H                     0.134382
     29 H                     0.112046
     30 H                     0.112419
     31 C                    -0.092271
     32 S                     0.065626
     33 C                    -0.223538
     34 C                    -0.167139
     35 C                    -0.243498
     36 H                     0.184931
     37 H                     0.183152
     38 H                     0.206304
     39 H                     0.138243
     40 H                     0.138514
     41 H                     0.207979
  ----------------------------------------
  Sum of atomic charges =     0.000000

                    Cartesian Multipole Moments
 -----------------------------------------------------------------
    Charge (ESU x 10^10)
                 0.0000
    Dipole Moment (Debye)
         X       0.7056      Y       0.9120      Z       1.4308
       Tot       1.8376
    Quadrupole Moments (Debye-Ang)
        XX    -169.8437     XY      -1.0614     YY    -179.0364
        XZ     -12.6938     YZ      -8.1443     ZZ    -179.1963

 Total job time:  305.46s(wall), 9705.71s(cpu)
        *  Thank you very much for using Q-Chem.  Have a nice day.  *
