 Q-Chem 5.4, Q-Chem, Inc., Pleasanton, CA (2021)
 Q-Chem 5.4.0 for Intel X86 EM64T Linux

User input:
--------------------------------------------------------------
$molecule
0 1
C	0.197767	-6.741404	0.164018
C	1.198109	-6.155638	1.003240
C	-0.632428	-5.791452	-0.533192
C	1.411364	-4.803786	1.182482
H	1.870845	-6.821518	1.567483
C	-0.409419	-4.378638	-0.345145
C	0.609565	-3.838032	0.510347
C	-1.210332	-3.413062	-1.016449
C	0.830799	-2.426473	0.696879
C	-0.999856	-2.059348	-0.839039
C	-0.000000	-1.478216	-0.000000
H	-1.673483	-1.394783	-1.403737
C	-1.736282	-6.187987	-1.461835
C	-2.306183	-3.798164	-1.936119
N	-2.491597	-5.170003	-2.093916
C	2.510310	-4.424987	2.104529
C	1.936153	-2.036627	1.625377
N	2.691451	-3.049156	2.257873
O	-2.034222	-7.353131	-1.715561
O	-3.014044	-2.986854	-2.528858
O	3.209622	-5.248946	2.690385
O	2.251529	-0.878829	1.891876
C	-3.573032	-5.563799	-3.002711
H	-3.606932	-6.664085	-3.032655
H	-3.382888	-5.147101	-4.010326
H	-4.533125	-5.148785	-2.640711
C	3.756832	-2.587487	3.152408
H	4.249778	-3.483329	3.564653
H	3.328759	-1.964972	3.960905
H	4.477709	-1.962932	2.591422
C	0.000000	0.000000	0.000000
S	0.686805	0.396760	1.580530
C	2.105095	1.215640	0.904911
C	0.864201	0.499140	-0.985400
C	2.007514	1.159347	-0.493528
H	0.660136	0.381296	-2.059934
H	2.770388	1.599875	-1.152593
H	2.867745	1.656053	1.556025
H	-0.461623	-7.361589	0.783314
H	0.693983	-7.361192	-0.592677
H	-0.694617	-1.478831	0.826987
$end

$rem
JOBTYPE		SP
EXCHANGE	HF
CORRELATION	pRIMP2
BASIS		cc-pvtz
METHOD		rimp2
AUX_BASIS	rimp2-cc-pvtz
SOLVENT_METHOD	PCM
PURECART	11111
SYMMETRY	false
MEM_TOTAL	110000
SCF_CONVERGENCE = 6
THRESH=10
GUI = 2
$end

$solvent
dielectric 4.90
$end
--------------------------------------------------------------

             Standard Nuclear Orientation (Angstroms)
    I     Atom           X                Y                Z
 ----------------------------------------------------------------
    1      C       0.1977670000    -6.7414040000     0.1640180000
    2      C       1.1981090000    -6.1556380000     1.0032400000
    3      C      -0.6324280000    -5.7914520000    -0.5331920000
    4      C       1.4113640000    -4.8037860000     1.1824820000
    5      H       1.8708450000    -6.8215180000     1.5674830000
    6      C      -0.4094190000    -4.3786380000    -0.3451450000
    7      C       0.6095650000    -3.8380320000     0.5103470000
    8      C      -1.2103320000    -3.4130620000    -1.0164490000
    9      C       0.8307990000    -2.4264730000     0.6968790000
   10      C      -0.9998560000    -2.0593480000    -0.8390390000
   11      C       0.0000000000    -1.4782160000     0.0000000000
   12      H      -1.6734830000    -1.3947830000    -1.4037370000
   13      C      -1.7362820000    -6.1879870000    -1.4618350000
   14      C      -2.3061830000    -3.7981640000    -1.9361190000
   15      N      -2.4915970000    -5.1700030000    -2.0939160000
   16      C       2.5103100000    -4.4249870000     2.1045290000
   17      C       1.9361530000    -2.0366270000     1.6253770000
   18      N       2.6914510000    -3.0491560000     2.2578730000
   19      O      -2.0342220000    -7.3531310000    -1.7155610000
   20      O      -3.0140440000    -2.9868540000    -2.5288580000
   21      O       3.2096220000    -5.2489460000     2.6903850000
   22      O       2.2515290000    -0.8788290000     1.8918760000
   23      C      -3.5730320000    -5.5637990000    -3.0027110000
   24      H      -3.6069320000    -6.6640850000    -3.0326550000
   25      H      -3.3828880000    -5.1471010000    -4.0103260000
   26      H      -4.5331250000    -5.1487850000    -2.6407110000
   27      C       3.7568320000    -2.5874870000     3.1524080000
   28      H       4.2497780000    -3.4833290000     3.5646530000
   29      H       3.3287590000    -1.9649720000     3.9609050000
   30      H       4.4777090000    -1.9629320000     2.5914220000
   31      C       0.0000000000     0.0000000000     0.0000000000
   32      S       0.6868050000     0.3967600000     1.5805300000
   33      C       2.1050950000     1.2156400000     0.9049110000
   34      C       0.8642010000     0.4991400000    -0.9854000000
   35      C       2.0075140000     1.1593470000    -0.4935280000
   36      H       0.6601360000     0.3812960000    -2.0599340000
   37      H       2.7703880000     1.5998750000    -1.1525930000
   38      H       2.8677450000     1.6560530000     1.5560250000
   39      H      -0.4616230000    -7.3615890000     0.7833140000
   40      H       0.6939830000    -7.3611920000    -0.5926770000
   41      H      -0.6946170000    -1.4788310000     0.8269870000
 ----------------------------------------------------------------

   12   -1571.5757699736      4.96e-07  Convergence criterion met
 Total energy in the final basis set =    -1571.5757699736
        RIMP2         total energy =     -1576.2728436238 a.u.

                    Orbital Energies (a.u.)
 --------------------------------------------------------------

 Alpha MOs
 -- Occupied --
-91.9813 -20.5541 -20.5468 -20.5392 -20.5373 -15.6331 -15.6193 -11.4023
-11.3876 -11.3813 -11.3757 -11.3103 -11.3039 -11.3034 -11.3015 -11.2990
-11.2828 -11.2788 -11.2693 -11.2666 -11.2658 -11.2582 -11.2582 -11.2526
-11.2521 -11.2500 -11.2402  -8.9816  -6.6622  -6.6613  -6.6604  -1.4421
 -1.4098  -1.4050  -1.3888  -1.2709  -1.2535  -1.2288  -1.1867  -1.1480
 -1.1123  -1.0824  -1.0463  -0.9945  -0.9891  -0.9868  -0.9556  -0.9487
 -0.8975  -0.8831  -0.8781  -0.8602  -0.7849  -0.7817  -0.7731  -0.7713
 -0.7348  -0.7252  -0.7024  -0.6900  -0.6830  -0.6701  -0.6663  -0.6579
 -0.6536  -0.6468  -0.6370  -0.6310  -0.6306  -0.6285  -0.6251  -0.6014
 -0.5872  -0.5776  -0.5693  -0.5640  -0.5602  -0.5550  -0.5525  -0.5471
 -0.5464  -0.5430  -0.5179  -0.5107  -0.5020  -0.4832  -0.4663  -0.4598
 -0.4528  -0.4411  -0.4330  -0.4317  -0.4156  -0.4053  -0.3521  -0.3269
 -0.2906  -0.2712

          Ground-State Mulliken Net Atomic Charges

     Atom                 Charge (a.u.)
  ----------------------------------------
      1 C                    -0.085413
      2 C                    -0.025680
      3 C                    -0.118871
      4 C                    -0.118805
      5 H                     0.199351
      6 C                     0.016749
      7 C                     0.134406
      8 C                    -0.098980
      9 C                    -0.257867
     10 C                    -0.159810
     11 C                     0.224055
     12 H                     0.192528
     13 C                     0.342490
     14 C                     0.344174
     15 N                    -0.088695
     16 C                     0.356371
     17 C                     0.436602
     18 N                    -0.082645
     19 O                    -0.498714
     20 O                    -0.510791
     21 O                    -0.499739
     22 O                    -0.429869
     23 C                    -0.205479
     24 H                     0.138936
     25 H                     0.108617
     26 H                     0.108732
     27 C                    -0.198369
     28 H                     0.136087
     29 H                     0.112684
     30 H                     0.111668
     31 C                    -0.162555
     32 S                    -0.002710
     33 C                    -0.091595
     34 C                    -0.103504
     35 C                    -0.280004
     36 H                     0.191675
     37 H                     0.181445
     38 H                     0.204377
     39 H                     0.137751
     40 H                     0.137999
     41 H                     0.203397
  ----------------------------------------
  Sum of atomic charges =     0.000000

                    Cartesian Multipole Moments
 -----------------------------------------------------------------
    Charge (ESU x 10^10)
                 0.0000
    Dipole Moment (Debye)
         X       4.3329      Y       0.8210      Z       1.8576
       Tot       4.7852
    Quadrupole Moments (Debye-Ang)
        XX    -171.1600     XY      -3.5512     YY    -188.3287
        XZ     -12.1370     YZ      -8.7221     ZZ    -168.0557

 Total job time:  340.08s(wall), 9399.64s(cpu)
        *  Thank you very much for using Q-Chem.  Have a nice day.  *
