 Q-Chem 5.4, Q-Chem, Inc., Pleasanton, CA (2021)
 Q-Chem 5.4.0 for Intel X86 EM64T Linux

User input:
--------------------------------------------------------------
$molecule
0 1
C	0.240927	-6.741404	-0.089263
C	1.467886	-6.155638	-0.535973
C	-0.777972	-5.791452	0.281103
C	1.729742	-4.803786	-0.631036
H	2.292903	-6.821518	-0.836458
C	-0.503614	-4.378638	0.181995
C	0.746756	-3.838032	-0.272725
C	-1.485437	-3.413062	0.539954
C	1.018915	-2.426473	-0.371053
C	-1.226557	-2.059348	0.446381
C	0.000000	-1.478216	0.000000
H	-2.052413	-1.394783	0.747410
C	-2.134128	-6.187987	0.772747
C	-2.829820	-3.798164	1.029154
N	-3.059182	-5.170003	1.110828
C	3.077731	-4.424987	-1.121728
C	2.375694	-2.036627	-0.864069
N	3.301101	-3.049156	-1.201928
O	-2.502830	-7.353131	0.903908
O	-3.697078	-2.986854	1.345809
O	3.934752	-5.248946	-1.434422
O	2.764177	-0.878829	-1.003943
C	-4.386939	-5.563799	1.592981
H	-4.429822	-6.664085	1.607367
H	-5.164489	-5.147101	0.924504
H	-4.553486	-5.148785	2.605446
C	4.608481	-2.587487	-1.677308
H	5.211969	-3.483329	-1.898089
H	5.094624	-1.964972	-0.902337
H	4.483092	-1.962932	-2.582098
C	0.000000	0.000000	0.000000
S	0.205093	0.766196	1.580530
C	0.628939	2.348114	0.904911
C	0.258137	0.964028	-0.985400
C	0.599745	2.239309	-0.493528
H	0.197169	0.736404	-2.059934
H	0.827678	3.090243	-1.152593
H	0.856796	3.198808	1.556025
H	0.447559	-7.361589	0.791434
H	-0.166282	-7.361192	-0.897345
H	0.368883	-1.478831	1.015049
$end

$rem
JOBTYPE		SP
EXCHANGE	HF
CORRELATION	pRIMP2
BASIS		cc-pvtz
METHOD		rimp2
AUX_BASIS	rimp2-cc-pvtz
SOLVENT_METHOD	PCM
PURECART	11111
SYMMETRY	false
MEM_TOTAL	110000
SCF_CONVERGENCE = 6
THRESH=10
GUI = 2
$end

$solvent
dielectric 4.90
$end
--------------------------------------------------------------

             Standard Nuclear Orientation (Angstroms)
    I     Atom           X                Y                Z
 ----------------------------------------------------------------
    1      C       0.2409270000    -6.7414040000    -0.0892630000
    2      C       1.4678860000    -6.1556380000    -0.5359730000
    3      C      -0.7779720000    -5.7914520000     0.2811030000
    4      C       1.7297420000    -4.8037860000    -0.6310360000
    5      H       2.2929030000    -6.8215180000    -0.8364580000
    6      C      -0.5036140000    -4.3786380000     0.1819950000
    7      C       0.7467560000    -3.8380320000    -0.2727250000
    8      C      -1.4854370000    -3.4130620000     0.5399540000
    9      C       1.0189150000    -2.4264730000    -0.3710530000
   10      C      -1.2265570000    -2.0593480000     0.4463810000
   11      C       0.0000000000    -1.4782160000     0.0000000000
   12      H      -2.0524130000    -1.3947830000     0.7474100000
   13      C      -2.1341280000    -6.1879870000     0.7727470000
   14      C      -2.8298200000    -3.7981640000     1.0291540000
   15      N      -3.0591820000    -5.1700030000     1.1108280000
   16      C       3.0777310000    -4.4249870000    -1.1217280000
   17      C       2.3756940000    -2.0366270000    -0.8640690000
   18      N       3.3011010000    -3.0491560000    -1.2019280000
   19      O      -2.5028300000    -7.3531310000     0.9039080000
   20      O      -3.6970780000    -2.9868540000     1.3458090000
   21      O       3.9347520000    -5.2489460000    -1.4344220000
   22      O       2.7641770000    -0.8788290000    -1.0039430000
   23      C      -4.3869390000    -5.5637990000     1.5929810000
   24      H      -4.4298220000    -6.6640850000     1.6073670000
   25      H      -5.1644890000    -5.1471010000     0.9245040000
   26      H      -4.5534860000    -5.1487850000     2.6054460000
   27      C       4.6084810000    -2.5874870000    -1.6773080000
   28      H       5.2119690000    -3.4833290000    -1.8980890000
   29      H       5.0946240000    -1.9649720000    -0.9023370000
   30      H       4.4830920000    -1.9629320000    -2.5820980000
   31      C       0.0000000000     0.0000000000     0.0000000000
   32      S       0.2050930000     0.7661960000     1.5805300000
   33      C       0.6289390000     2.3481140000     0.9049110000
   34      C       0.2581370000     0.9640280000    -0.9854000000
   35      C       0.5997450000     2.2393090000    -0.4935280000
   36      H       0.1971690000     0.7364040000    -2.0599340000
   37      H       0.8276780000     3.0902430000    -1.1525930000
   38      H       0.8567960000     3.1988080000     1.5560250000
   39      H       0.4475590000    -7.3615890000     0.7914340000
   40      H      -0.1662820000    -7.3611920000    -0.8973450000
   41      H       0.3688830000    -1.4788310000     1.0150490000
 ----------------------------------------------------------------

   11   -1571.7405809815      5.61e-07  Convergence criterion met
 Total energy in the final basis set =    -1571.7405809815
        RIMP2         total energy =     -1576.3959580163 a.u.

                    Orbital Energies (a.u.)
 --------------------------------------------------------------

 Alpha MOs
 -- Occupied --
-91.9928 -20.5507 -20.5442 -20.5414 -20.5401 -15.6264 -15.6209 -11.3925
-11.3849 -11.3833 -11.3786 -11.3082 -11.3076 -11.3046 -11.3044 -11.2962
-11.2909 -11.2880 -11.2839 -11.2687 -11.2678 -11.2638 -11.2627 -11.2592
-11.2532 -11.2525 -11.2506  -8.9925  -6.6733  -6.6729  -6.6722  -1.4187
 -1.4119  -1.3966  -1.3910  -1.2616  -1.2551  -1.2296  -1.1868  -1.1523
 -1.1135  -1.0865  -1.0462  -0.9960  -0.9875  -0.9843  -0.9547  -0.9507
 -0.8956  -0.8866  -0.8764  -0.8598  -0.7929  -0.7752  -0.7723  -0.7684
 -0.7399  -0.7155  -0.7037  -0.6910  -0.6763  -0.6705  -0.6671  -0.6569
 -0.6467  -0.6420  -0.6377  -0.6314  -0.6306  -0.6264  -0.6225  -0.6048
 -0.5846  -0.5744  -0.5661  -0.5609  -0.5564  -0.5510  -0.5497  -0.5475
 -0.5462  -0.5435  -0.5222  -0.5154  -0.5079  -0.4806  -0.4744  -0.4690
 -0.4569  -0.4507  -0.4424  -0.4344  -0.4130  -0.4072  -0.3557  -0.3514
 -0.3278  -0.2880

          Ground-State Mulliken Net Atomic Charges

     Atom                 Charge (a.u.)
  ----------------------------------------
      1 C                    -0.084784
      2 C                    -0.029988
      3 C                    -0.112439
      4 C                    -0.121797
      5 H                     0.198536
      6 C                     0.008589
      7 C                     0.120674
      8 C                    -0.070221
      9 C                    -0.142998
     10 C                    -0.168741
     11 C                     0.244476
     12 H                     0.193419
     13 C                     0.343794
     14 C                     0.350225
     15 N                    -0.089891
     16 C                     0.357090
     17 C                     0.353183
     18 N                    -0.089796
     19 O                    -0.494662
     20 O                    -0.507475
     21 O                    -0.501900
     22 O                    -0.469017
     23 C                    -0.204778
     24 H                     0.139322
     25 H                     0.109143
     26 H                     0.109065
     27 C                    -0.197394
     28 H                     0.133189
     29 H                     0.111647
     30 H                     0.110934
     31 C                    -0.086188
     32 S                     0.008546
     33 C                    -0.212038
     34 C                    -0.158273
     35 C                    -0.202133
     36 H                     0.185048
     37 H                     0.190302
     38 H                     0.213058
     39 H                     0.137387
     40 H                     0.137646
     41 H                     0.189240
  ----------------------------------------
  Sum of atomic charges =     0.000000

                    Cartesian Multipole Moments
 -----------------------------------------------------------------
    Charge (ESU x 10^10)
                 0.0000
    Dipole Moment (Debye)
         X       1.7382      Y       2.4702      Z      -0.6807
       Tot       3.0962
    Quadrupole Moments (Debye-Ang)
        XX    -191.4809     XY      -5.7901     YY    -178.6124
        XZ      10.9943     YZ       2.5330     ZZ    -160.1303

 Total job time:  295.08s(wall), 9065.98s(cpu)
        *  Thank you very much for using Q-Chem.  Have a nice day.  *
