 Q-Chem 5.4, Q-Chem, Inc., Pleasanton, CA (2021)
 Q-Chem 5.4.0 for Intel X86 EM64T Linux

User input:
--------------------------------------------------------------
$molecule
0 1
C	-0.252767	-6.741404	0.046070
C	-1.538656	-6.155638	0.272935
C	0.814966	-5.791452	-0.141739
C	-1.813042	-4.803786	0.321083
H	-2.403318	-6.821518	0.425592
C	0.527566	-4.378638	-0.091779
C	-0.782769	-3.838032	0.138909
C	1.556632	-3.413062	-0.273808
C	-1.067868	-2.426473	0.188483
C	1.285436	-2.059348	-0.226610
C	-0.000000	-1.478216	-0.000000
H	2.151019	-1.394783	-0.379657
C	2.235891	-6.187987	-0.390420
C	2.965540	-3.798164	-0.522125
N	3.205600	-5.170003	-0.562731
C	-3.225760	-4.424987	0.570244
C	-2.489646	-2.036627	0.438407
N	-3.459662	-3.049156	0.610438
O	2.621768	-7.353131	-0.455563
O	3.874608	-2.986854	-0.683373
O	-4.124059	-5.248946	0.729367
O	-2.896516	-0.878829	0.508697
C	4.596910	-5.563799	-0.806996
H	4.641640	-6.664085	-0.813717
H	5.246567	-5.147101	-0.013655
H	4.936739	-5.148785	-1.775159
C	-4.829729	-2.587487	0.851572
H	-5.462387	-3.483329	0.964204
H	-5.173914	-1.964972	0.003956
H	-4.863360	-1.962932	1.764390
C	0.000000	0.000000	0.000000
S	0.271091	0.745405	1.580530
C	0.831198	2.284363	0.904911
C	0.341175	0.937861	-0.985400
C	0.792631	2.178516	-0.493528
H	0.260601	0.716417	-2.059934
H	1.093860	3.006347	-1.152593
H	1.132330	3.111961	1.556025
H	-0.303328	-7.361589	-0.857128
H	0.007933	-7.361192	0.912587
H	-0.187017	-1.478831	-1.063684
$end

$rem
JOBTYPE		SP
EXCHANGE	HF
CORRELATION	pRIMP2
BASIS		cc-pvtz
METHOD		rimp2
AUX_BASIS	rimp2-cc-pvtz
SOLVENT_METHOD	PCM
PURECART	11111
SYMMETRY	false
MEM_TOTAL	110000
SCF_CONVERGENCE = 6
THRESH=10
GUI = 2
$end

$solvent
dielectric 4.90
$end
--------------------------------------------------------------

             Standard Nuclear Orientation (Angstroms)
    I     Atom           X                Y                Z
 ----------------------------------------------------------------
    1      C      -0.2527670000    -6.7414040000     0.0460700000
    2      C      -1.5386560000    -6.1556380000     0.2729350000
    3      C       0.8149660000    -5.7914520000    -0.1417390000
    4      C      -1.8130420000    -4.8037860000     0.3210830000
    5      H      -2.4033180000    -6.8215180000     0.4255920000
    6      C       0.5275660000    -4.3786380000    -0.0917790000
    7      C      -0.7827690000    -3.8380320000     0.1389090000
    8      C       1.5566320000    -3.4130620000    -0.2738080000
    9      C      -1.0678680000    -2.4264730000     0.1884830000
   10      C       1.2854360000    -2.0593480000    -0.2266100000
   11      C       0.0000000000    -1.4782160000     0.0000000000
   12      H       2.1510190000    -1.3947830000    -0.3796570000
   13      C       2.2358910000    -6.1879870000    -0.3904200000
   14      C       2.9655400000    -3.7981640000    -0.5221250000
   15      N       3.2056000000    -5.1700030000    -0.5627310000
   16      C      -3.2257600000    -4.4249870000     0.5702440000
   17      C      -2.4896460000    -2.0366270000     0.4384070000
   18      N      -3.4596620000    -3.0491560000     0.6104380000
   19      O       2.6217680000    -7.3531310000    -0.4555630000
   20      O       3.8746080000    -2.9868540000    -0.6833730000
   21      O      -4.1240590000    -5.2489460000     0.7293670000
   22      O      -2.8965160000    -0.8788290000     0.5086970000
   23      C       4.5969100000    -5.5637990000    -0.8069960000
   24      H       4.6416400000    -6.6640850000    -0.8137170000
   25      H       5.2465670000    -5.1471010000    -0.0136550000
   26      H       4.9367390000    -5.1487850000    -1.7751590000
   27      C      -4.8297290000    -2.5874870000     0.8515720000
   28      H      -5.4623870000    -3.4833290000     0.9642040000
   29      H      -5.1739140000    -1.9649720000     0.0039560000
   30      H      -4.8633600000    -1.9629320000     1.7643900000
   31      C       0.0000000000     0.0000000000     0.0000000000
   32      S       0.2710910000     0.7454050000     1.5805300000
   33      C       0.8311980000     2.2843630000     0.9049110000
   34      C       0.3411750000     0.9378610000    -0.9854000000
   35      C       0.7926310000     2.1785160000    -0.4935280000
   36      H       0.2606010000     0.7164170000    -2.0599340000
   37      H       1.0938600000     3.0063470000    -1.1525930000
   38      H       1.1323300000     3.1119610000     1.5560250000
   39      H      -0.3033280000    -7.3615890000    -0.8571280000
   40      H       0.0079330000    -7.3611920000     0.9125870000
   41      H      -0.1870170000    -1.4788310000    -1.0636840000
 ----------------------------------------------------------------

   11   -1571.7451762197      5.42e-07  Convergence criterion met
 Total energy in the final basis set =    -1571.7451762197
        RIMP2         total energy =     -1576.4003162417 a.u.

                    Orbital Energies (a.u.)
 --------------------------------------------------------------

 Alpha MOs
 -- Occupied --
-91.9872 -20.5526 -20.5444 -20.5419 -20.5407 -15.6268 -15.6214 -11.3934
-11.3850 -11.3837 -11.3794 -11.3093 -11.3081 -11.3048 -11.3046 -11.2968
-11.2963 -11.2896 -11.2833 -11.2693 -11.2680 -11.2649 -11.2626 -11.2595
-11.2593 -11.2527 -11.2515  -8.9870  -6.6678  -6.6673  -6.6668  -1.4195
 -1.4124  -1.3972  -1.3915  -1.2620  -1.2556  -1.2299  -1.1872  -1.1529
 -1.1142  -1.0864  -1.0466  -0.9960  -0.9878  -0.9854  -0.9552  -0.9509
 -0.8966  -0.8877  -0.8765  -0.8597  -0.7948  -0.7769  -0.7708  -0.7631
 -0.7424  -0.7173  -0.7045  -0.6917  -0.6812  -0.6721  -0.6666  -0.6573
 -0.6471  -0.6440  -0.6361  -0.6332  -0.6309  -0.6276  -0.6217  -0.6047
 -0.5844  -0.5759  -0.5683  -0.5614  -0.5573  -0.5513  -0.5506  -0.5480
 -0.5465  -0.5436  -0.5214  -0.5148  -0.5082  -0.4822  -0.4752  -0.4618
 -0.4580  -0.4513  -0.4429  -0.4347  -0.4133  -0.4075  -0.3569  -0.3504
 -0.3286  -0.2899

          Ground-State Mulliken Net Atomic Charges

     Atom                 Charge (a.u.)
  ----------------------------------------
      1 C                    -0.084293
      2 C                    -0.031787
      3 C                    -0.111361
      4 C                    -0.120475
      5 H                     0.198744
      6 C                     0.019464
      7 C                     0.119851
      8 C                    -0.090157
      9 C                    -0.172379
     10 C                    -0.098719
     11 C                     0.142037
     12 H                     0.198944
     13 C                     0.343621
     14 C                     0.344825
     15 N                    -0.090063
     16 C                     0.356891
     17 C                     0.344172
     18 N                    -0.093039
     19 O                    -0.494121
     20 O                    -0.507089
     21 O                    -0.501509
     22 O                    -0.471080
     23 C                    -0.204827
     24 H                     0.139552
     25 H                     0.109402
     26 H                     0.108847
     27 C                    -0.196966
     28 H                     0.133044
     29 H                     0.111319
     30 H                     0.112131
     31 C                     0.031352
     32 S                     0.012948
     33 C                    -0.208916
     34 C                    -0.221363
     35 C                    -0.194947
     36 H                     0.187080
     37 H                     0.192996
     38 H                     0.210656
     39 H                     0.137461
     40 H                     0.137826
     41 H                     0.199924
  ----------------------------------------
  Sum of atomic charges =     0.000000

                    Cartesian Multipole Moments
 -----------------------------------------------------------------
    Charge (ESU x 10^10)
                 0.0000
    Dipole Moment (Debye)
         X      -0.3043      Y       2.1700      Z      -1.6857
       Tot       2.7646
    Quadrupole Moments (Debye-Ang)
        XX    -193.6608     XY      12.4447     YY    -178.6805
        XZ       5.9404     YZ       0.3804     ZZ    -157.3060

 Total job time:  316.14s(wall), 10341.63s(cpu)
        *  Thank you very much for using Q-Chem.  Have a nice day.  *
