 Q-Chem 5.4, Q-Chem, Inc., Pleasanton, CA (2021)
 Q-Chem 5.4.0 for Intel X86 EM64T Linux

User input:
--------------------------------------------------------------
$molecule
0 1
C	-0.129743	-6.741404	-0.221766
C	-0.782726	-6.155638	-1.352515
C	0.411926	-5.791452	0.717339
C	-0.921816	-4.803786	-1.593885
H	-1.221908	-6.821518	-2.112819
C	0.266682	-4.378638	0.464360
C	-0.398255	-3.838032	-0.688053
C	0.789694	-3.413062	1.369108
C	-0.542349	-2.426473	-0.939002
C	0.652589	-2.059348	1.130409
C	0.000000	-1.478216	0.000000
H	1.092453	-1.394783	1.891446
C	1.131595	-6.187987	1.967519
C	1.504912	-3.798164	2.608118
N	1.625174	-5.170003	2.819813
C	-1.639129	-4.424987	-2.836188
C	-1.263477	-2.036627	-2.189558
N	-1.756898	-3.049156	-3.042237
O	1.324787	-7.353131	2.307845
O	1.967354	-2.986854	3.407213
O	-2.095892	-5.248946	-3.625890
O	-1.468685	-0.878829	-2.547850
C	2.330564	-5.563799	4.043674
H	2.352178	-6.664085	4.083407
H	1.807263	-5.147101	4.925490
H	3.356568	-5.148785	4.031877
C	-2.452080	-2.587487	-4.247206
H	-2.774302	-3.483329	-4.803187
H	-1.773301	-1.964972	-4.860536
H	-3.321351	-1.962932	-3.966607
C	0.000000	0.000000	0.000000
S	0.509686	0.607733	1.580530
C	1.562368	1.862312	0.904911
C	0.641367	0.764613	-0.985400
C	1.489926	1.776040	-0.493528
H	0.489914	0.584081	-2.059934
H	2.056124	2.450920	-1.152593
H	2.128395	2.537007	1.556025
H	0.701693	-7.361589	-0.578191
H	-0.854838	-7.361192	0.319578
H	0.935572	-1.478831	-0.539540
$end

$rem
JOBTYPE		SP
EXCHANGE	HF
CORRELATION	pRIMP2
BASIS		cc-pvtz
METHOD		rimp2
AUX_BASIS	rimp2-cc-pvtz
SOLVENT_METHOD	PCM
PURECART	11111
SYMMETRY	false
MEM_TOTAL	110000
SCF_CONVERGENCE = 6
THRESH=10
GUI = 2
$end

$solvent
dielectric 4.90
$end
--------------------------------------------------------------

             Standard Nuclear Orientation (Angstroms)
    I     Atom           X                Y                Z
 ----------------------------------------------------------------
    1      C      -0.1297430000    -6.7414040000    -0.2217660000
    2      C      -0.7827260000    -6.1556380000    -1.3525150000
    3      C       0.4119260000    -5.7914520000     0.7173390000
    4      C      -0.9218160000    -4.8037860000    -1.5938850000
    5      H      -1.2219080000    -6.8215180000    -2.1128190000
    6      C       0.2666820000    -4.3786380000     0.4643600000
    7      C      -0.3982550000    -3.8380320000    -0.6880530000
    8      C       0.7896940000    -3.4130620000     1.3691080000
    9      C      -0.5423490000    -2.4264730000    -0.9390020000
   10      C       0.6525890000    -2.0593480000     1.1304090000
   11      C       0.0000000000    -1.4782160000     0.0000000000
   12      H       1.0924530000    -1.3947830000     1.8914460000
   13      C       1.1315950000    -6.1879870000     1.9675190000
   14      C       1.5049120000    -3.7981640000     2.6081180000
   15      N       1.6251740000    -5.1700030000     2.8198130000
   16      C      -1.6391290000    -4.4249870000    -2.8361880000
   17      C      -1.2634770000    -2.0366270000    -2.1895580000
   18      N      -1.7568980000    -3.0491560000    -3.0422370000
   19      O       1.3247870000    -7.3531310000     2.3078450000
   20      O       1.9673540000    -2.9868540000     3.4072130000
   21      O      -2.0958920000    -5.2489460000    -3.6258900000
   22      O      -1.4686850000    -0.8788290000    -2.5478500000
   23      C       2.3305640000    -5.5637990000     4.0436740000
   24      H       2.3521780000    -6.6640850000     4.0834070000
   25      H       1.8072630000    -5.1471010000     4.9254900000
   26      H       3.3565680000    -5.1487850000     4.0318770000
   27      C      -2.4520800000    -2.5874870000    -4.2472060000
   28      H      -2.7743020000    -3.4833290000    -4.8031870000
   29      H      -1.7733010000    -1.9649720000    -4.8605360000
   30      H      -3.3213510000    -1.9629320000    -3.9666070000
   31      C       0.0000000000     0.0000000000     0.0000000000
   32      S       0.5096860000     0.6077330000     1.5805300000
   33      C       1.5623680000     1.8623120000     0.9049110000
   34      C       0.6413670000     0.7646130000    -0.9854000000
   35      C       1.4899260000     1.7760400000    -0.4935280000
   36      H       0.4899140000     0.5840810000    -2.0599340000
   37      H       2.0561240000     2.4509200000    -1.1525930000
   38      H       2.1283950000     2.5370070000     1.5560250000
   39      H       0.7016930000    -7.3615890000    -0.5781910000
   40      H      -0.8548380000    -7.3611920000     0.3195780000
   41      H       0.9355720000    -1.4788310000    -0.5395400000
 ----------------------------------------------------------------

   11   -1571.7016986171      5.81e-07  Convergence criterion met
 Total energy in the final basis set =    -1571.7016986171
        RIMP2         total energy =     -1576.3690305206 a.u.

                    Orbital Energies (a.u.)
 --------------------------------------------------------------

 Alpha MOs
 -- Occupied --
-91.9910 -20.5537 -20.5445 -20.5396 -20.5392 -15.6275 -15.6200 -11.3946
-11.3851 -11.3816 -11.3775 -11.3071 -11.3035 -11.3027 -11.3013 -11.2958
-11.2919 -11.2888 -11.2882 -11.2673 -11.2657 -11.2634 -11.2618 -11.2587
-11.2551 -11.2517 -11.2514  -8.9918  -6.6725  -6.6719  -6.6715  -1.4207
 -1.4107  -1.3979  -1.3898  -1.2626  -1.2542  -1.2321  -1.1914  -1.1513
 -1.1127  -1.0851  -1.0464  -0.9973  -0.9916  -0.9871  -0.9547  -0.9481
 -0.8963  -0.8877  -0.8757  -0.8582  -0.7964  -0.7805  -0.7702  -0.7609
 -0.7387  -0.7174  -0.7008  -0.6926  -0.6839  -0.6712  -0.6667  -0.6566
 -0.6474  -0.6465  -0.6359  -0.6312  -0.6298  -0.6271  -0.6219  -0.6041
 -0.5907  -0.5749  -0.5693  -0.5612  -0.5576  -0.5516  -0.5496  -0.5494
 -0.5467  -0.5428  -0.5198  -0.5128  -0.5021  -0.4847  -0.4758  -0.4643
 -0.4562  -0.4511  -0.4415  -0.4335  -0.4138  -0.4066  -0.3531  -0.3509
 -0.3337  -0.2773

          Ground-State Mulliken Net Atomic Charges

     Atom                 Charge (a.u.)
  ----------------------------------------
      1 C                    -0.084607
      2 C                    -0.032517
      3 C                    -0.112623
      4 C                    -0.119998
      5 H                     0.198343
      6 C                     0.017159
      7 C                     0.117805
      8 C                    -0.046434
      9 C                    -0.195894
     10 C                    -0.183431
     11 C                     0.179831
     12 H                     0.192757
     13 C                     0.339665
     14 C                     0.346678
     15 N                    -0.089035
     16 C                     0.356890
     17 C                     0.357297
     18 N                    -0.090169
     19 O                    -0.497517
     20 O                    -0.510604
     21 O                    -0.501476
     22 O                    -0.475935
     23 C                    -0.205426
     24 H                     0.139275
     25 H                     0.109004
     26 H                     0.108612
     27 C                    -0.198239
     28 H                     0.133725
     29 H                     0.110616
     30 H                     0.112368
     31 C                    -0.017795
     32 S                     0.014477
     33 C                    -0.185444
     34 C                    -0.143188
     35 C                    -0.237803
     36 H                     0.198949
     37 H                     0.192269
     38 H                     0.214820
     39 H                     0.136378
     40 H                     0.136684
     41 H                     0.214536
  ----------------------------------------
  Sum of atomic charges =     0.000000

                    Cartesian Multipole Moments
 -----------------------------------------------------------------
    Charge (ESU x 10^10)
                 0.0000
    Dipole Moment (Debye)
         X       1.7215      Y       2.3944      Z      -2.2086
       Tot       3.6843
    Quadrupole Moments (Debye-Ang)
        XX    -166.2308     XY       9.2599     YY    -185.2664
        XZ     -14.1477     YZ       9.6250     ZZ    -180.9944

 Total job time:  303.60s(wall), 8847.72s(cpu)
        *  Thank you very much for using Q-Chem.  Have a nice day.  *
