 Q-Chem 5.4, Q-Chem, Inc., Pleasanton, CA (2021)
 Q-Chem 5.4.0 for Intel X86 EM64T Linux

User input:
--------------------------------------------------------------
$molecule
0 1
C	0.001478	-6.741404	0.256927
C	0.001603	-6.155638	1.562675
C	0.001931	-5.791452	-0.827197
C	0.001374	-4.803786	1.841253
H	0.001794	-6.821518	2.440709
C	0.001227	-4.378638	-0.535488
C	0.000872	-3.838032	0.794999
C	0.000658	-3.413062	-1.580529
C	0.000186	-2.426473	1.084374
C	0.000046	-2.059348	-1.305258
C	0.000000	-1.478216	0.000000
H	-0.000369	-1.394783	-2.184267
C	0.003770	-6.187987	-2.269719
C	0.000767	-3.798164	-3.011152
N	0.002465	-5.170003	-3.254617
C	0.001433	-4.424987	3.275775
C	-0.000576	-2.036627	2.527951
N	0.000400	-3.049156	3.513104
O	0.006623	-7.353131	-2.661046
O	-0.000172	-2.986854	-3.934410
O	0.002151	-5.248946	4.188059
O	-0.002006	-0.878829	2.940845
C	0.003509	-5.563799	-4.667206
H	0.004658	-6.664085	-4.712423
H	0.897610	-5.147101	-5.169231
H	-0.890935	-5.148785	-5.169992
C	-0.000039	-2.587487	4.904229
H	0.001022	-3.483329	5.546833
H	-0.894545	-1.964972	5.095998
H	0.893071	-1.962932	5.095858
C	0.000000	0.000000	0.000000
S	0.137535	0.781156	1.580530
C	0.421895	2.393994	0.904911
C	0.173134	0.982857	-0.985400
C	0.402294	2.283058	-0.493528
H	0.132237	0.750786	-2.059934
H	0.555196	3.150621	-1.152593
H	0.574741	3.261310	1.556025
H	-0.896779	-7.361589	0.149881
H	0.900100	-7.361192	0.150656
H	-1.080000	-1.478831	-0.000531
$end

$rem
JOBTYPE		SP
EXCHANGE	HF
CORRELATION	pRIMP2
BASIS		cc-pvtz
METHOD		rimp2
AUX_BASIS	rimp2-cc-pvtz
SOLVENT_METHOD	PCM
PURECART	11111
SYMMETRY	false
MEM_TOTAL	110000
SCF_CONVERGENCE = 6
THRESH=10
GUI = 2
$end

$solvent
dielectric 4.90
$end
--------------------------------------------------------------

             Standard Nuclear Orientation (Angstroms)
    I     Atom           X                Y                Z
 ----------------------------------------------------------------
    1      C       0.0014780000    -6.7414040000     0.2569270000
    2      C       0.0016030000    -6.1556380000     1.5626750000
    3      C       0.0019310000    -5.7914520000    -0.8271970000
    4      C       0.0013740000    -4.8037860000     1.8412530000
    5      H       0.0017940000    -6.8215180000     2.4407090000
    6      C       0.0012270000    -4.3786380000    -0.5354880000
    7      C       0.0008720000    -3.8380320000     0.7949990000
    8      C       0.0006580000    -3.4130620000    -1.5805290000
    9      C       0.0001860000    -2.4264730000     1.0843740000
   10      C       0.0000460000    -2.0593480000    -1.3052580000
   11      C       0.0000000000    -1.4782160000     0.0000000000
   12      H      -0.0003690000    -1.3947830000    -2.1842670000
   13      C       0.0037700000    -6.1879870000    -2.2697190000
   14      C       0.0007670000    -3.7981640000    -3.0111520000
   15      N       0.0024650000    -5.1700030000    -3.2546170000
   16      C       0.0014330000    -4.4249870000     3.2757750000
   17      C      -0.0005760000    -2.0366270000     2.5279510000
   18      N       0.0004000000    -3.0491560000     3.5131040000
   19      O       0.0066230000    -7.3531310000    -2.6610460000
   20      O      -0.0001720000    -2.9868540000    -3.9344100000
   21      O       0.0021510000    -5.2489460000     4.1880590000
   22      O      -0.0020060000    -0.8788290000     2.9408450000
   23      C       0.0035090000    -5.5637990000    -4.6672060000
   24      H       0.0046580000    -6.6640850000    -4.7124230000
   25      H       0.8976100000    -5.1471010000    -5.1692310000
   26      H      -0.8909350000    -5.1487850000    -5.1699920000
   27      C      -0.0000390000    -2.5874870000     4.9042290000
   28      H       0.0010220000    -3.4833290000     5.5468330000
   29      H      -0.8945450000    -1.9649720000     5.0959980000
   30      H       0.8930710000    -1.9629320000     5.0958580000
   31      C       0.0000000000     0.0000000000     0.0000000000
   32      S       0.1375350000     0.7811560000     1.5805300000
   33      C       0.4218950000     2.3939940000     0.9049110000
   34      C       0.1731340000     0.9828570000    -0.9854000000
   35      C       0.4022940000     2.2830580000    -0.4935280000
   36      H       0.1322370000     0.7507860000    -2.0599340000
   37      H       0.5551960000     3.1506210000    -1.1525930000
   38      H       0.5747410000     3.2613100000     1.5560250000
   39      H      -0.8967790000    -7.3615890000     0.1498810000
   40      H       0.9001000000    -7.3611920000     0.1506560000
   41      H      -1.0800000000    -1.4788310000    -0.0005310000
 ----------------------------------------------------------------

   11   -1571.6909243577      6.00e-07  Convergence criterion met
 Total energy in the final basis set =    -1571.6909243577
        RIMP2         total energy =     -1576.3599926881 a.u.

                    Orbital Energies (a.u.)
 --------------------------------------------------------------

 Alpha MOs
 -- Occupied --
-91.9677 -20.5582 -20.5473 -20.5429 -20.5419 -15.6320 -15.6226 -11.4025
-11.3882 -11.3849 -11.3805 -11.3133 -11.3103 -11.3099 -11.3066 -11.2998
-11.2939 -11.2920 -11.2713 -11.2707 -11.2673 -11.2656 -11.2602 -11.2547
-11.2520 -11.2457 -11.2361  -8.9677  -6.6482  -6.6467  -6.6457  -1.4347
 -1.4135  -1.4042  -1.3926  -1.2690  -1.2569  -1.2322  -1.1856  -1.1453
 -1.1165  -1.0869  -1.0500  -0.9950  -0.9899  -0.9743  -0.9571  -0.9475
 -0.8995  -0.8919  -0.8805  -0.8637  -0.7925  -0.7828  -0.7766  -0.7579
 -0.7316  -0.7278  -0.7017  -0.6899  -0.6889  -0.6770  -0.6694  -0.6597
 -0.6523  -0.6466  -0.6382  -0.6345  -0.6334  -0.6327  -0.6236  -0.6066
 -0.5906  -0.5719  -0.5677  -0.5636  -0.5559  -0.5539  -0.5535  -0.5504
 -0.5489  -0.5460  -0.5216  -0.5138  -0.5126  -0.4887  -0.4795  -0.4648
 -0.4565  -0.4452  -0.4386  -0.4202  -0.4089  -0.3793  -0.3561  -0.3388
 -0.3263  -0.2763

          Ground-State Mulliken Net Atomic Charges

     Atom                 Charge (a.u.)
  ----------------------------------------
      1 C                    -0.084321
      2 C                    -0.029063
      3 C                    -0.105426
      4 C                    -0.119876
      5 H                     0.200041
      6 C                     0.025290
      7 C                     0.126542
      8 C                    -0.098338
      9 C                    -0.188022
     10 C                    -0.144871
     11 C                     0.209154
     12 H                     0.194443
     13 C                     0.342367
     14 C                     0.349354
     15 N                    -0.090344
     16 C                     0.358611
     17 C                     0.383472
     18 N                    -0.087193
     19 O                    -0.493583
     20 O                    -0.507139
     21 O                    -0.498521
     22 O                    -0.442113
     23 C                    -0.204750
     24 H                     0.139741
     25 H                     0.109669
     26 H                     0.109389
     27 C                    -0.199173
     28 H                     0.135459
     29 H                     0.112949
     30 H                     0.113578
     31 C                    -0.040285
     32 S                     0.076523
     33 C                    -0.270307
     34 C                    -0.194449
     35 C                    -0.240526
     36 H                     0.178952
     37 H                     0.179142
     38 H                     0.200235
     39 H                     0.138826
     40 H                     0.139250
     41 H                     0.215315
  ----------------------------------------
  Sum of atomic charges =     0.000000

                    Cartesian Multipole Moments
 -----------------------------------------------------------------
    Charge (ESU x 10^10)
                 0.0000
    Dipole Moment (Debye)
         X      -0.7657      Y      -0.1131      Z       1.2777
       Tot       1.4938
    Quadrupole Moments (Debye-Ang)
        XX    -162.3999     XY       2.7010     YY    -177.5035
        XZ       0.0852     YZ     -10.0160     ZZ    -185.9034

 Total job time:  313.67s(wall), 9502.06s(cpu)
        *  Thank you very much for using Q-Chem.  Have a nice day.  *
