 Q-Chem 5.4, Q-Chem, Inc., Pleasanton, CA (2021)
 Q-Chem 5.4.0 for Intel X86 EM64T Linux

User input:
--------------------------------------------------------------
$molecule
0 1
C	0.127184	-6.741404	-0.223244
C	0.779949	-6.155638	-1.354118
C	-0.415271	-5.791452	0.715408
C	0.919437	-4.803786	-1.595259
H	1.218801	-6.821518	-2.114613
C	-0.268806	-4.378638	0.463133
C	0.396744	-3.838032	-0.688925
C	-0.790835	-3.413062	1.368449
C	0.542026	-2.426473	-0.939189
C	-0.652669	-2.059348	1.130363
C	0.000000	-1.478216	0.000000
H	-1.091814	-1.394783	1.891815
C	-1.138124	-6.187987	1.963749
C	-1.506241	-3.798164	2.607351
N	-1.629443	-5.170003	2.817348
C	1.636646	-4.424987	-2.837621
C	1.264474	-2.036627	-2.188982
N	1.756205	-3.049156	-3.042637
O	-1.336258	-7.353131	2.301222
O	-1.967056	-2.986854	3.407386
O	2.092167	-5.248946	-3.628041
O	1.472160	-0.878829	-2.545844
C	-2.336642	-5.563799	4.040164
H	-2.360245	-6.664085	4.078749
H	-3.361968	-5.147101	4.027880
H	-1.813424	-5.148785	4.922811
C	2.452149	-2.587487	-4.247167
H	2.772531	-3.483329	-4.804209
H	3.322697	-1.964972	-3.965991
H	1.774507	-1.962932	-4.859678
C	0.000000	0.000000	0.000000
S	0.396411	0.687007	1.580530
C	1.215245	2.105322	0.904911
C	0.498850	0.864369	-0.985400
C	1.158885	2.007781	-0.493528
H	0.381046	0.660280	-2.059934
H	1.599289	2.770727	-1.152593
H	1.655514	2.868056	1.556025
H	0.851574	-7.361589	0.318588
H	-0.704181	-7.361192	-0.580522
H	0.935042	-1.478831	0.540459
$end

$rem
JOBTYPE		SP
EXCHANGE	HF
CORRELATION	pRIMP2
BASIS		cc-pvtz
METHOD		rimp2
AUX_BASIS	rimp2-cc-pvtz
SOLVENT_METHOD	PCM
PURECART	11111
SYMMETRY	false
MEM_TOTAL	110000
SCF_CONVERGENCE = 6
THRESH=10
GUI = 2
$end

$solvent
dielectric 4.90
$end
--------------------------------------------------------------

             Standard Nuclear Orientation (Angstroms)
    I     Atom           X                Y                Z
 ----------------------------------------------------------------
    1      C       0.1271840000    -6.7414040000    -0.2232440000
    2      C       0.7799490000    -6.1556380000    -1.3541180000
    3      C      -0.4152710000    -5.7914520000     0.7154080000
    4      C       0.9194370000    -4.8037860000    -1.5952590000
    5      H       1.2188010000    -6.8215180000    -2.1146130000
    6      C      -0.2688060000    -4.3786380000     0.4631330000
    7      C       0.3967440000    -3.8380320000    -0.6889250000
    8      C      -0.7908350000    -3.4130620000     1.3684490000
    9      C       0.5420260000    -2.4264730000    -0.9391890000
   10      C      -0.6526690000    -2.0593480000     1.1303630000
   11      C       0.0000000000    -1.4782160000     0.0000000000
   12      H      -1.0918140000    -1.3947830000     1.8918150000
   13      C      -1.1381240000    -6.1879870000     1.9637490000
   14      C      -1.5062410000    -3.7981640000     2.6073510000
   15      N      -1.6294430000    -5.1700030000     2.8173480000
   16      C       1.6366460000    -4.4249870000    -2.8376210000
   17      C       1.2644740000    -2.0366270000    -2.1889820000
   18      N       1.7562050000    -3.0491560000    -3.0426370000
   19      O      -1.3362580000    -7.3531310000     2.3012220000
   20      O      -1.9670560000    -2.9868540000     3.4073860000
   21      O       2.0921670000    -5.2489460000    -3.6280410000
   22      O       1.4721600000    -0.8788290000    -2.5458440000
   23      C      -2.3366420000    -5.5637990000     4.0401640000
   24      H      -2.3602450000    -6.6640850000     4.0787490000
   25      H      -3.3619680000    -5.1471010000     4.0278800000
   26      H      -1.8134240000    -5.1487850000     4.9228110000
   27      C       2.4521490000    -2.5874870000    -4.2471670000
   28      H       2.7725310000    -3.4833290000    -4.8042090000
   29      H       3.3226970000    -1.9649720000    -3.9659910000
   30      H       1.7745070000    -1.9629320000    -4.8596780000
   31      C       0.0000000000     0.0000000000     0.0000000000
   32      S       0.3964110000     0.6870070000     1.5805300000
   33      C       1.2152450000     2.1053220000     0.9049110000
   34      C       0.4988500000     0.8643690000    -0.9854000000
   35      C       1.1588850000     2.0077810000    -0.4935280000
   36      H       0.3810460000     0.6602800000    -2.0599340000
   37      H       1.5992890000     2.7707270000    -1.1525930000
   38      H       1.6555140000     2.8680560000     1.5560250000
   39      H       0.8515740000    -7.3615890000     0.3185880000
   40      H      -0.7041810000    -7.3611920000    -0.5805220000
   41      H       0.9350420000    -1.4788310000     0.5404590000
 ----------------------------------------------------------------

   11   -1571.7159140054      5.72e-07  Convergence criterion met
 Total energy in the final basis set =    -1571.7159140054
        RIMP2         total energy =     -1576.3776623571 a.u.

                    Orbital Energies (a.u.)
 --------------------------------------------------------------

 Alpha MOs
 -- Occupied --
-91.9864 -20.5506 -20.5452 -20.5415 -20.5405 -15.6283 -15.6211 -11.3960
-11.3858 -11.3833 -11.3790 -11.3081 -11.3071 -11.3055 -11.3045 -11.2965
-11.2877 -11.2853 -11.2838 -11.2689 -11.2682 -11.2655 -11.2640 -11.2592
-11.2527 -11.2474 -11.2455  -8.9869  -6.6677  -6.6672  -6.6665  -1.4225
 -1.4121  -1.3991  -1.3912  -1.2638  -1.2554  -1.2307  -1.1879  -1.1505
 -1.1139  -1.0859  -1.0472  -0.9957  -0.9882  -0.9829  -0.9553  -0.9489
 -0.8964  -0.8879  -0.8774  -0.8606  -0.7924  -0.7782  -0.7718  -0.7628
 -0.7402  -0.7202  -0.7026  -0.6884  -0.6785  -0.6743  -0.6671  -0.6575
 -0.6478  -0.6464  -0.6375  -0.6314  -0.6308  -0.6287  -0.6230  -0.6047
 -0.5889  -0.5703  -0.5663  -0.5601  -0.5573  -0.5519  -0.5502  -0.5481
 -0.5475  -0.5427  -0.5195  -0.5138  -0.5076  -0.4827  -0.4739  -0.4637
 -0.4566  -0.4496  -0.4425  -0.4349  -0.4147  -0.4075  -0.3550  -0.3487
 -0.3301  -0.2781

          Ground-State Mulliken Net Atomic Charges

     Atom                 Charge (a.u.)
  ----------------------------------------
      1 C                    -0.084782
      2 C                    -0.030856
      3 C                    -0.111654
      4 C                    -0.124608
      5 H                     0.198594
      6 C                     0.018900
      7 C                     0.128431
      8 C                    -0.069394
      9 C                    -0.187584
     10 C                    -0.160334
     11 C                     0.198905
     12 H                     0.182759
     13 C                     0.343434
     14 C                     0.346654
     15 N                    -0.089792
     16 C                     0.357742
     17 C                     0.388609
     18 N                    -0.088029
     19 O                    -0.494533
     20 O                    -0.506529
     21 O                    -0.501096
     22 O                    -0.480446
     23 C                    -0.204897
     24 H                     0.139377
     25 H                     0.109325
     26 H                     0.109211
     27 C                    -0.198725
     28 H                     0.134375
     29 H                     0.111448
     30 H                     0.111609
     31 C                    -0.040613
     32 S                    -0.002785
     33 C                    -0.218892
     34 C                    -0.175208
     35 C                    -0.196246
     36 H                     0.195862
     37 H                     0.191946
     38 H                     0.213606
     39 H                     0.137378
     40 H                     0.137757
     41 H                     0.211082
  ----------------------------------------
  Sum of atomic charges =     0.000000

                    Cartesian Multipole Moments
 -----------------------------------------------------------------
    Charge (ESU x 10^10)
                 0.0000
    Dipole Moment (Debye)
         X       2.4560      Y       1.9705      Z      -1.9603
       Tot       3.7091
    Quadrupole Moments (Debye-Ang)
        XX    -167.8113     XY      -0.6723     YY    -180.4624
        XZ      14.2316     YZ       7.5577     ZZ    -180.9641

 Total job time:  317.84s(wall), 9156.11s(cpu)
        *  Thank you very much for using Q-Chem.  Have a nice day.  *
