 Q-Chem 5.4, Q-Chem, Inc., Pleasanton, CA (2021)
 Q-Chem 5.4.0 for Intel X86 EM64T Linux

User input:
--------------------------------------------------------------
$molecule
0 1
C	0.129743	-6.741404	0.221766
C	0.782726	-6.155638	1.352515
C	-0.411926	-5.791452	-0.717339
C	0.921816	-4.803786	1.593885
H	1.221908	-6.821518	2.112819
C	-0.266682	-4.378638	-0.464360
C	0.398255	-3.838032	0.688053
C	-0.789694	-3.413062	-1.369108
C	0.542349	-2.426473	0.939002
C	-0.652589	-2.059348	-1.130409
C	-0.000000	-1.478216	-0.000000
H	-1.092453	-1.394783	-1.891446
C	-1.131595	-6.187987	-1.967519
C	-1.504912	-3.798164	-2.608118
N	-1.625174	-5.170003	-2.819813
C	1.639129	-4.424987	2.836188
C	1.263477	-2.036627	2.189558
N	1.756898	-3.049156	3.042237
O	-1.324787	-7.353131	-2.307845
O	-1.967354	-2.986854	-3.407213
O	2.095892	-5.248946	3.625890
O	1.468685	-0.878829	2.547850
C	-2.330564	-5.563799	-4.043674
H	-2.352178	-6.664085	-4.083407
H	-1.807263	-5.147101	-4.925490
H	-3.356568	-5.148785	-4.031877
C	2.452080	-2.587487	4.247206
H	2.774302	-3.483329	4.803187
H	1.773301	-1.964972	4.860536
H	3.321351	-1.962932	3.966607
C	0.000000	0.000000	0.000000
S	0.607475	0.509994	1.580530
C	1.862020	1.562717	0.904911
C	0.764397	0.641624	-0.985400
C	1.775697	1.490335	-0.493528
H	0.583895	0.490135	-2.059934
H	2.450484	2.056643	-1.152593
H	2.536607	2.128872	1.556025
H	-0.701693	-7.361589	0.578191
H	0.854838	-7.361192	-0.319578
H	-0.935572	-1.478831	0.539540
$end

$rem
JOBTYPE		SP
EXCHANGE	HF
CORRELATION	pRIMP2
BASIS		cc-pvtz
METHOD		rimp2
AUX_BASIS	rimp2-cc-pvtz
SOLVENT_METHOD	PCM
PURECART	11111
SYMMETRY	false
MEM_TOTAL	110000
SCF_CONVERGENCE = 6
THRESH=10
GUI = 2
$end

$solvent
dielectric 4.90
$end
--------------------------------------------------------------

             Standard Nuclear Orientation (Angstroms)
    I     Atom           X                Y                Z
 ----------------------------------------------------------------
    1      C       0.1297430000    -6.7414040000     0.2217660000
    2      C       0.7827260000    -6.1556380000     1.3525150000
    3      C      -0.4119260000    -5.7914520000    -0.7173390000
    4      C       0.9218160000    -4.8037860000     1.5938850000
    5      H       1.2219080000    -6.8215180000     2.1128190000
    6      C      -0.2666820000    -4.3786380000    -0.4643600000
    7      C       0.3982550000    -3.8380320000     0.6880530000
    8      C      -0.7896940000    -3.4130620000    -1.3691080000
    9      C       0.5423490000    -2.4264730000     0.9390020000
   10      C      -0.6525890000    -2.0593480000    -1.1304090000
   11      C       0.0000000000    -1.4782160000     0.0000000000
   12      H      -1.0924530000    -1.3947830000    -1.8914460000
   13      C      -1.1315950000    -6.1879870000    -1.9675190000
   14      C      -1.5049120000    -3.7981640000    -2.6081180000
   15      N      -1.6251740000    -5.1700030000    -2.8198130000
   16      C       1.6391290000    -4.4249870000     2.8361880000
   17      C       1.2634770000    -2.0366270000     2.1895580000
   18      N       1.7568980000    -3.0491560000     3.0422370000
   19      O      -1.3247870000    -7.3531310000    -2.3078450000
   20      O      -1.9673540000    -2.9868540000    -3.4072130000
   21      O       2.0958920000    -5.2489460000     3.6258900000
   22      O       1.4686850000    -0.8788290000     2.5478500000
   23      C      -2.3305640000    -5.5637990000    -4.0436740000
   24      H      -2.3521780000    -6.6640850000    -4.0834070000
   25      H      -1.8072630000    -5.1471010000    -4.9254900000
   26      H      -3.3565680000    -5.1487850000    -4.0318770000
   27      C       2.4520800000    -2.5874870000     4.2472060000
   28      H       2.7743020000    -3.4833290000     4.8031870000
   29      H       1.7733010000    -1.9649720000     4.8605360000
   30      H       3.3213510000    -1.9629320000     3.9666070000
   31      C       0.0000000000     0.0000000000     0.0000000000
   32      S       0.6074750000     0.5099940000     1.5805300000
   33      C       1.8620200000     1.5627170000     0.9049110000
   34      C       0.7643970000     0.6416240000    -0.9854000000
   35      C       1.7756970000     1.4903350000    -0.4935280000
   36      H       0.5838950000     0.4901350000    -2.0599340000
   37      H       2.4504840000     2.0566430000    -1.1525930000
   38      H       2.5366070000     2.1288720000     1.5560250000
   39      H      -0.7016930000    -7.3615890000     0.5781910000
   40      H       0.8548380000    -7.3611920000    -0.3195780000
   41      H      -0.9355720000    -1.4788310000     0.5395400000
 ----------------------------------------------------------------

   11   -1571.5695970911      7.74e-07  Convergence criterion met
 Total energy in the final basis set =    -1571.5695970911
        RIMP2         total energy =     -1576.2716004875 a.u.

                    Orbital Energies (a.u.)
 --------------------------------------------------------------

 Alpha MOs
 -- Occupied --
-92.0092 -20.5848 -20.5518 -20.5405 -20.5385 -15.6427 -15.6206 -11.4211
-11.3931 -11.3828 -11.3772 -11.3158 -11.3094 -11.3058 -11.3051 -11.3038
-11.2789 -11.2729 -11.2710 -11.2686 -11.2613 -11.2613 -11.2589 -11.2552
-11.2472 -11.2273 -11.2241  -9.0063  -6.6873  -6.6851  -6.6837  -1.4699
 -1.4114  -1.4110  -1.3901  -1.2814  -1.2549  -1.2302  -1.1849  -1.1442
 -1.1158  -1.0834  -1.0506  -0.9994  -0.9920  -0.9812  -0.9588  -0.9453
 -0.9057  -0.8873  -0.8823  -0.8642  -0.7933  -0.7891  -0.7793  -0.7591
 -0.7437  -0.7270  -0.7039  -0.6927  -0.6876  -0.6796  -0.6688  -0.6603
 -0.6550  -0.6471  -0.6395  -0.6333  -0.6323  -0.6292  -0.6280  -0.6063
 -0.5918  -0.5910  -0.5714  -0.5654  -0.5587  -0.5564  -0.5485  -0.5476
 -0.5472  -0.5452  -0.5325  -0.5128  -0.5107  -0.4869  -0.4692  -0.4629
 -0.4540  -0.4431  -0.4423  -0.4278  -0.4104  -0.4068  -0.3561  -0.3254
 -0.2784  -0.2554

          Ground-State Mulliken Net Atomic Charges

     Atom                 Charge (a.u.)
  ----------------------------------------
      1 C                    -0.085416
      2 C                    -0.017454
      3 C                    -0.116729
      4 C                    -0.124099
      5 H                     0.201287
      6 C                     0.020978
      7 C                     0.142989
      8 C                    -0.104272
      9 C                    -0.279090
     10 C                    -0.143826
     11 C                     0.195407
     12 H                     0.193633
     13 C                     0.342682
     14 C                     0.345192
     15 N                    -0.089093
     16 C                     0.361790
     17 C                     0.440447
     18 N                    -0.080755
     19 O                    -0.497407
     20 O                    -0.509397
     21 O                    -0.493644
     22 O                    -0.375315
     23 C                    -0.205246
     24 H                     0.139132
     25 H                     0.109247
     26 H                     0.109157
     27 C                    -0.199149
     28 H                     0.137860
     29 H                     0.115540
     30 H                     0.115483
     31 C                    -0.153793
     32 S                     0.163165
     33 C                    -0.277997
     34 C                    -0.194737
     35 C                    -0.252060
     36 H                     0.180029
     37 H                     0.180575
     38 H                     0.202201
     39 H                     0.139754
     40 H                     0.140155
     41 H                     0.222774
  ----------------------------------------
  Sum of atomic charges =     0.000000

                    Cartesian Multipole Moments
 -----------------------------------------------------------------
    Charge (ESU x 10^10)
                 0.0000
    Dipole Moment (Debye)
         X       2.4544      Y      -1.2422      Z       4.2456
       Tot       5.0589
    Quadrupole Moments (Debye-Ang)
        XX    -164.4913     XY      -2.3523     YY    -181.4756
        XZ      -8.4576     YZ     -12.7669     ZZ    -174.1003

 Total job time:  312.20s(wall), 9340.96s(cpu)
        *  Thank you very much for using Q-Chem.  Have a nice day.  *
