 Q-Chem 5.4, Q-Chem, Inc., Pleasanton, CA (2021)
 Q-Chem 5.4.0 for Intel X86 EM64T Linux

User input:
--------------------------------------------------------------
$molecule
0 1
C	-0.086486	-6.741404	0.241938
C	-0.532960	-6.155638	1.468983
C	0.284733	-5.791452	-0.776651
C	-0.628455	-4.803786	1.730681
H	-0.833086	-6.821518	2.294130
C	0.184300	-4.378638	-0.502775
C	-0.271086	-3.838032	0.747353
C	0.541191	-3.413062	-1.484986
C	-0.370703	-2.426473	1.019042
C	0.446468	-2.059348	-1.226525
C	0.000000	-1.478216	0.000000
H	0.746717	-1.394783	-2.052666
C	0.779832	-6.187987	-2.131549
C	1.030596	-3.798164	-2.829295
N	1.115461	-5.170003	-3.057496
C	-1.119034	-4.424987	3.078712
C	-0.865151	-2.036627	2.375300
N	-1.201176	-3.049156	3.301374
O	0.916355	-7.353131	-2.498300
O	1.345486	-2.986854	-3.697195
O	-1.430379	-5.248946	3.936224
O	-1.007714	-0.878829	2.762805
C	1.599576	-5.563799	-4.384539
H	1.616121	-6.664085	-4.426636
H	2.611458	-5.147101	-4.550487
H	0.931037	-5.148785	-5.162921
C	-1.677382	-2.587487	4.608454
H	-1.896168	-3.483329	5.212668
H	-2.583531	-1.964972	4.482719
H	-0.903674	-1.962932	5.093988
C	0.000000	0.000000	0.000000
S	0.396411	0.687007	1.580530
C	1.215245	2.105322	0.904911
C	0.498850	0.864369	-0.985400
C	1.158885	2.007781	-0.493528
H	0.381046	0.660280	-2.059934
H	1.599289	2.770727	-1.152593
H	1.655514	2.868056	1.556025
H	-0.893959	-7.361589	-0.165874
H	0.794290	-7.361192	0.449423
H	-1.014686	-1.478831	-0.369880
$end

$rem
JOBTYPE		SP
EXCHANGE	HF
CORRELATION	pRIMP2
BASIS		cc-pvtz
METHOD		rimp2
AUX_BASIS	rimp2-cc-pvtz
SOLVENT_METHOD	PCM
PURECART	11111
SYMMETRY	false
MEM_TOTAL	110000
SCF_CONVERGENCE = 6
THRESH=10
GUI = 2
$end

$solvent
dielectric 4.90
$end
--------------------------------------------------------------

             Standard Nuclear Orientation (Angstroms)
    I     Atom           X                Y                Z
 ----------------------------------------------------------------
    1      C      -0.0864860000    -6.7414040000     0.2419380000
    2      C      -0.5329600000    -6.1556380000     1.4689830000
    3      C       0.2847330000    -5.7914520000    -0.7766510000
    4      C      -0.6284550000    -4.8037860000     1.7306810000
    5      H      -0.8330860000    -6.8215180000     2.2941300000
    6      C       0.1843000000    -4.3786380000    -0.5027750000
    7      C      -0.2710860000    -3.8380320000     0.7473530000
    8      C       0.5411910000    -3.4130620000    -1.4849860000
    9      C      -0.3707030000    -2.4264730000     1.0190420000
   10      C       0.4464680000    -2.0593480000    -1.2265250000
   11      C       0.0000000000    -1.4782160000     0.0000000000
   12      H       0.7467170000    -1.3947830000    -2.0526660000
   13      C       0.7798320000    -6.1879870000    -2.1315490000
   14      C       1.0305960000    -3.7981640000    -2.8292950000
   15      N       1.1154610000    -5.1700030000    -3.0574960000
   16      C      -1.1190340000    -4.4249870000     3.0787120000
   17      C      -0.8651510000    -2.0366270000     2.3753000000
   18      N      -1.2011760000    -3.0491560000     3.3013740000
   19      O       0.9163550000    -7.3531310000    -2.4983000000
   20      O       1.3454860000    -2.9868540000    -3.6971950000
   21      O      -1.4303790000    -5.2489460000     3.9362240000
   22      O      -1.0077140000    -0.8788290000     2.7628050000
   23      C       1.5995760000    -5.5637990000    -4.3845390000
   24      H       1.6161210000    -6.6640850000    -4.4266360000
   25      H       2.6114580000    -5.1471010000    -4.5504870000
   26      H       0.9310370000    -5.1487850000    -5.1629210000
   27      C      -1.6773820000    -2.5874870000     4.6084540000
   28      H      -1.8961680000    -3.4833290000     5.2126680000
   29      H      -2.5835310000    -1.9649720000     4.4827190000
   30      H      -0.9036740000    -1.9629320000     5.0939880000
   31      C       0.0000000000     0.0000000000     0.0000000000
   32      S       0.3964110000     0.6870070000     1.5805300000
   33      C       1.2152450000     2.1053220000     0.9049110000
   34      C       0.4988500000     0.8643690000    -0.9854000000
   35      C       1.1588850000     2.0077810000    -0.4935280000
   36      H       0.3810460000     0.6602800000    -2.0599340000
   37      H       1.5992890000     2.7707270000    -1.1525930000
   38      H       1.6555140000     2.8680560000     1.5560250000
   39      H      -0.8939590000    -7.3615890000    -0.1658740000
   40      H       0.7942900000    -7.3611920000     0.4494230000
   41      H      -1.0146860000    -1.4788310000    -0.3698800000
 ----------------------------------------------------------------

   11   -1571.7069285612      5.92e-07  Convergence criterion met
 Total energy in the final basis set =    -1571.7069285612
        RIMP2         total energy =     -1576.3749595942 a.u.

                    Orbital Energies (a.u.)
 --------------------------------------------------------------

 Alpha MOs
 -- Occupied --
-91.9758 -20.5555 -20.5456 -20.5412 -20.5407 -15.6292 -15.6214 -11.3977
-11.3864 -11.3832 -11.3792 -11.3104 -11.3086 -11.3077 -11.3049 -11.2977
-11.2899 -11.2888 -11.2702 -11.2690 -11.2685 -11.2647 -11.2640 -11.2595
-11.2544 -11.2530 -11.2438  -8.9757  -6.6562  -6.6553  -6.6546  -1.4263
 -1.4122  -1.4009  -1.3913  -1.2652  -1.2556  -1.2307  -1.1862  -1.1489
 -1.1148  -1.0858  -1.0479  -0.9947  -0.9887  -0.9798  -0.9557  -0.9489
 -0.8972  -0.8897  -0.8783  -0.8612  -0.7916  -0.7797  -0.7736  -0.7612
 -0.7324  -0.7199  -0.7021  -0.6913  -0.6850  -0.6755  -0.6680  -0.6581
 -0.6493  -0.6454  -0.6370  -0.6326  -0.6313  -0.6310  -0.6215  -0.6060
 -0.5884  -0.5736  -0.5655  -0.5624  -0.5598  -0.5534  -0.5519  -0.5488
 -0.5478  -0.5448  -0.5234  -0.5110  -0.5095  -0.4860  -0.4734  -0.4617
 -0.4551  -0.4441  -0.4368  -0.4255  -0.4085  -0.4069  -0.3548  -0.3445
 -0.3296  -0.2770

          Ground-State Mulliken Net Atomic Charges

     Atom                 Charge (a.u.)
  ----------------------------------------
      1 C                    -0.084314
      2 C                    -0.030086
      3 C                    -0.108723
      4 C                    -0.123562
      5 H                     0.199360
      6 C                     0.024417
      7 C                     0.121762
      8 C                    -0.091187
      9 C                    -0.175283
     10 C                    -0.152408
     11 C                     0.193673
     12 H                     0.189082
     13 C                     0.340440
     14 C                     0.349364
     15 N                    -0.089997
     16 C                     0.357344
     17 C                     0.375051
     18 N                    -0.089947
     19 O                    -0.495529
     20 O                    -0.509578
     21 O                    -0.500342
     22 O                    -0.473542
     23 C                    -0.205082
     24 H                     0.139573
     25 H                     0.109276
     26 H                     0.108991
     27 C                    -0.197908
     28 H                     0.134344
     29 H                     0.111947
     30 H                     0.112826
     31 C                    -0.000270
     32 S                     0.077979
     33 C                    -0.242393
     34 C                    -0.238424
     35 C                    -0.199578
     36 H                     0.180854
     37 H                     0.187165
     38 H                     0.205664
     39 H                     0.137516
     40 H                     0.138029
     41 H                     0.213492
  ----------------------------------------
  Sum of atomic charges =     0.000000

                    Cartesian Multipole Moments
 -----------------------------------------------------------------
    Charge (ESU x 10^10)
                 0.0000
    Dipole Moment (Debye)
         X      -0.6574      Y       1.3725      Z       0.3697
       Tot       1.5661
    Quadrupole Moments (Debye-Ang)
        XX    -163.9371     XY       8.7642     YY    -181.4897
        XZ      10.4103     YZ      -8.3498     ZZ    -184.1463

 Total job time:  300.77s(wall), 9071.34s(cpu)
        *  Thank you very much for using Q-Chem.  Have a nice day.  *
