 Q-Chem 5.4, Q-Chem, Inc., Pleasanton, CA (2021)
 Q-Chem 5.4.0 for Intel X86 EM64T Linux

User input:
--------------------------------------------------------------
$molecule
0 1
C	0.017238	0.994302	-0.975913
S	0.017712	0.089538	-2.483454
C	0.016943	-1.483003	-1.694786
C	0.017990	0.089855	0.091959
C	0.015678	-1.300291	-0.289503
S	0.020840	0.333430	1.829603
C	0.015310	-1.418244	2.078617
C	0.012857	-2.126552	0.886638
F	0.008053	-3.463201	0.843175
C	0.017200	-1.866268	3.480171
O	0.025182	-1.096422	4.430597
O	0.009737	-3.216790	3.593312
C	0.014960	-3.711875	4.940294
H	0.007973	-4.812905	4.857151
H	-0.878143	-3.358573	5.494255
H	0.918759	-3.368999	5.483380
C	-0.473624	2.342935	-0.975913
H	-1.553460	2.361784	-0.975913
H	-0.132268	2.879055	-1.849098
H	-0.132268	2.879055	-0.102728
H	0.015530	-2.407260	-2.282399
$end

$rem
JOBTYPE		SP
EXCHANGE	HF
CORRELATION	pRIMP2
BASIS		cc-pvtz
METHOD		rimp2
AUX_BASIS	rimp2-cc-pvtz
SOLVENT_METHOD	PCM
PURECART	11111
SYMMETRY	false
MEM_TOTAL	110000
SCF_CONVERGENCE = 6
THRESH=10
GUI = 2
$end

$solvent
dielectric 4.90
$end
--------------------------------------------------------------

             Standard Nuclear Orientation (Angstroms)
    I     Atom           X                Y                Z
 ----------------------------------------------------------------
    1      C       0.0172380000     0.9943020000    -0.9759130000
    2      S       0.0177120000     0.0895380000    -2.4834540000
    3      C       0.0169430000    -1.4830030000    -1.6947860000
    4      C       0.0179900000     0.0898550000     0.0919590000
    5      C       0.0156780000    -1.3002910000    -0.2895030000
    6      S       0.0208400000     0.3334300000     1.8296030000
    7      C       0.0153100000    -1.4182440000     2.0786170000
    8      C       0.0128570000    -2.1265520000     0.8866380000
    9      F       0.0080530000    -3.4632010000     0.8431750000
   10      C       0.0172000000    -1.8662680000     3.4801710000
   11      O       0.0251820000    -1.0964220000     4.4305970000
   12      O       0.0097370000    -3.2167900000     3.5933120000
   13      C       0.0149600000    -3.7118750000     4.9402940000
   14      H       0.0079730000    -4.8129050000     4.8571510000
   15      H      -0.8781430000    -3.3585730000     5.4942550000
   16      H       0.9187590000    -3.3689990000     5.4833800000
   17      C      -0.4736240000     2.3429350000    -0.9759130000
   18      H      -1.5534600000     2.3617840000    -0.9759130000
   19      H      -0.1322680000     2.8790550000    -1.8490980000
   20      H      -0.1322680000     2.8790550000    -0.1027280000
   21      H       0.0155300000    -2.4072600000    -2.2823990000
 ----------------------------------------------------------------

   11   -1389.3133364398      4.99e-07  Convergence criterion met
 Total energy in the final basis set =    -1389.3133364398
        RIMP2         total energy =     -1391.8123334607 a.u.

                    Orbital Energies (a.u.)
 --------------------------------------------------------------

 Alpha MOs
 -- Occupied --
-92.0053 -91.9925 -26.3406 -20.6135 -20.5596 -11.4075 -11.3786 -11.2991
-11.2942 -11.2881 -11.2864 -11.2838 -11.2786 -11.2274  -9.0042  -8.9926
 -6.6850  -6.6844  -6.6840  -6.6737  -6.6730  -6.6719  -1.6578  -1.4659
 -1.3685  -1.2120  -1.1346  -1.0608  -1.0186  -0.9905  -0.9581  -0.9077
 -0.8632  -0.8049  -0.7883  -0.7575  -0.7252  -0.7227  -0.6903  -0.6832
 -0.6727  -0.6585  -0.6098  -0.6046  -0.5942  -0.5722  -0.5640  -0.5592
 -0.5354  -0.5305  -0.5201  -0.4991  -0.4732  -0.4713  -0.4700  -0.4623
 -0.3898  -0.3448  -0.2887

          Ground-State Mulliken Net Atomic Charges

     Atom                 Charge (a.u.)
  ----------------------------------------
      1 C                     0.009107
      2 S                     0.076801
      3 C                    -0.212843
      4 C                    -0.030705
      5 C                    -0.086515
      6 S                    -0.005829
      7 C                    -0.156373
      8 C                     0.390088
      9 F                    -0.208390
     10 C                     0.445785
     11 O                    -0.462551
     12 O                    -0.300971
     13 C                    -0.058559
     14 H                     0.121098
     15 H                     0.094709
     16 H                     0.094726
     17 C                    -0.283211
     18 H                     0.124945
     19 H                     0.117372
     20 H                     0.118168
     21 H                     0.213147
  ----------------------------------------
  Sum of atomic charges =     0.000000

                    Cartesian Multipole Moments
 -----------------------------------------------------------------
    Charge (ESU x 10^10)
                -0.0000
    Dipole Moment (Debye)
         X      -0.5560      Y      -0.7264      Z      -3.1967
       Tot       3.3250
    Quadrupole Moments (Debye-Ang)
        XX     -96.2141     XY      -0.9997     YY     -82.2301
        XZ       0.4530     YZ      -9.8303     ZZ     -96.3736

 Total job time:  61.98s(wall), 2109.27s(cpu)
        *  Thank you very much for using Q-Chem.  Have a nice day.  *
