 Q-Chem 5.4, Q-Chem, Inc., Pleasanton, CA (2021)
 Q-Chem 5.4.0 for Intel X86 EM64T Linux

User input:
--------------------------------------------------------------
$molecule
0 1
C	0.004649	0.991511	-0.975913
S	0.005123	0.086747	-2.483454
C	0.004354	-1.485794	-1.694786
C	0.005401	0.087064	0.091959
C	0.003089	-1.303082	-0.289503
S	0.008251	0.330639	1.829603
C	0.002721	-1.421035	2.078617
C	0.000268	-2.129343	0.886638
F	-0.004536	-3.465992	0.843175
C	0.004611	-1.869059	3.480171
O	0.012593	-1.099213	4.430597
O	-0.002852	-3.219581	3.593312
C	0.002371	-3.714666	4.940294
H	-0.004616	-4.815696	4.857151
H	-0.890732	-3.361364	5.494255
H	0.906170	-3.371790	5.483380
C	-0.120436	2.421235	-0.975913
H	-1.158598	2.718923	-0.975913
H	0.348047	2.850738	-1.849098
H	0.348047	2.850738	-0.102728
H	0.002941	-2.410051	-2.282399
$end

$rem
JOBTYPE		SP
EXCHANGE	HF
CORRELATION	pRIMP2
BASIS		cc-pvtz
METHOD		rimp2
AUX_BASIS	rimp2-cc-pvtz
SOLVENT_METHOD	PCM
PURECART	11111
SYMMETRY	false
MEM_TOTAL	110000
SCF_CONVERGENCE = 6
THRESH=10
GUI = 2
$end

$solvent
dielectric 4.90
$end
--------------------------------------------------------------

             Standard Nuclear Orientation (Angstroms)
    I     Atom           X                Y                Z
 ----------------------------------------------------------------
    1      C       0.0046490000     0.9915110000    -0.9759130000
    2      S       0.0051230000     0.0867470000    -2.4834540000
    3      C       0.0043540000    -1.4857940000    -1.6947860000
    4      C       0.0054010000     0.0870640000     0.0919590000
    5      C       0.0030890000    -1.3030820000    -0.2895030000
    6      S       0.0082510000     0.3306390000     1.8296030000
    7      C       0.0027210000    -1.4210350000     2.0786170000
    8      C       0.0002680000    -2.1293430000     0.8866380000
    9      F      -0.0045360000    -3.4659920000     0.8431750000
   10      C       0.0046110000    -1.8690590000     3.4801710000
   11      O       0.0125930000    -1.0992130000     4.4305970000
   12      O      -0.0028520000    -3.2195810000     3.5933120000
   13      C       0.0023710000    -3.7146660000     4.9402940000
   14      H      -0.0046160000    -4.8156960000     4.8571510000
   15      H      -0.8907320000    -3.3613640000     5.4942550000
   16      H       0.9061700000    -3.3717900000     5.4833800000
   17      C      -0.1204360000     2.4212350000    -0.9759130000
   18      H      -1.1585980000     2.7189230000    -0.9759130000
   19      H       0.3480470000     2.8507380000    -1.8490980000
   20      H       0.3480470000     2.8507380000    -0.1027280000
   21      H       0.0029410000    -2.4100510000    -2.2823990000
 ----------------------------------------------------------------

   11   -1389.3198689641      5.06e-07  Convergence criterion met
 Total energy in the final basis set =    -1389.3198689641
        RIMP2         total energy =     -1391.8172206967 a.u.

                    Orbital Energies (a.u.)
 --------------------------------------------------------------

 Alpha MOs
 -- Occupied --
-92.0059 -91.9914 -26.3402 -20.6134 -20.5595 -11.4073 -11.3782 -11.2965
-11.2941 -11.2880 -11.2877 -11.2843 -11.2782 -11.2285  -9.0047  -8.9916
 -6.6855  -6.6849  -6.6844  -6.6727  -6.6720  -6.6708  -1.6575  -1.4657
 -1.3683  -1.2111  -1.1340  -1.0605  -1.0182  -0.9911  -0.9578  -0.9086
 -0.8629  -0.8044  -0.7880  -0.7573  -0.7250  -0.7224  -0.6900  -0.6831
 -0.6726  -0.6584  -0.6098  -0.6049  -0.5940  -0.5711  -0.5653  -0.5588
 -0.5376  -0.5305  -0.5205  -0.4989  -0.4729  -0.4711  -0.4696  -0.4636
 -0.3902  -0.3447  -0.2881

          Ground-State Mulliken Net Atomic Charges

     Atom                 Charge (a.u.)
  ----------------------------------------
      1 C                     0.028073
      2 S                     0.073585
      3 C                    -0.215896
      4 C                    -0.027180
      5 C                    -0.092314
      6 S                    -0.011091
      7 C                    -0.157062
      8 C                     0.389124
      9 F                    -0.208702
     10 C                     0.445314
     11 O                    -0.462573
     12 O                    -0.300865
     13 C                    -0.058665
     14 H                     0.121087
     15 H                     0.094721
     16 H                     0.094686
     17 C                    -0.283422
     18 H                     0.123065
     19 H                     0.117582
     20 H                     0.117347
     21 H                     0.213185
  ----------------------------------------
  Sum of atomic charges =     0.000000

                    Cartesian Multipole Moments
 -----------------------------------------------------------------
    Charge (ESU x 10^10)
                -0.0000
    Dipole Moment (Debye)
         X      -0.1589      Y      -0.4467      Z      -3.2623
       Tot       3.2966
    Quadrupole Moments (Debye-Ang)
        XX     -96.3726     XY      -0.2635     YY     -81.6632
        XZ       0.0813     YZ     -10.2109     ZZ     -96.4292

 Total job time:  59.69s(wall), 2035.54s(cpu)
        *  Thank you very much for using Q-Chem.  Have a nice day.  *
