 Q-Chem 5.4, Q-Chem, Inc., Pleasanton, CA (2021)
 Q-Chem 5.4.0 for Intel X86 EM64T Linux

User input:
--------------------------------------------------------------
$molecule
0 1
C	0.008921	0.992074	-0.975913
S	0.009395	0.087310	-2.483454
C	0.008626	-1.485231	-1.694786
C	0.009673	0.087627	0.091959
C	0.007361	-1.302519	-0.289503
S	0.012523	0.331202	1.829603
C	0.006993	-1.420472	2.078617
C	0.004540	-2.128780	0.886638
F	-0.000264	-3.465429	0.843175
C	0.008883	-1.868496	3.480171
O	0.016865	-1.098650	4.430597
O	0.001420	-3.219018	3.593312
C	0.006643	-3.714103	4.940294
H	-0.000344	-4.815133	4.857151
H	-0.886460	-3.360801	5.494255
H	0.910442	-3.371227	5.483380
C	-0.240296	2.405456	-0.975913
H	-1.300454	2.611529	-0.975913
H	0.188970	2.874155	-1.849098
H	0.188970	2.874155	-0.102728
H	0.007213	-2.409488	-2.282399
$end

$rem
JOBTYPE		SP
EXCHANGE	HF
CORRELATION	pRIMP2
BASIS		cc-pvtz
METHOD		rimp2
AUX_BASIS	rimp2-cc-pvtz
SOLVENT_METHOD	PCM
PURECART	11111
SYMMETRY	false
MEM_TOTAL	110000
SCF_CONVERGENCE = 6
THRESH=10
GUI = 2
$end

$solvent
dielectric 4.90
$end
--------------------------------------------------------------

             Standard Nuclear Orientation (Angstroms)
    I     Atom           X                Y                Z
 ----------------------------------------------------------------
    1      C       0.0089210000     0.9920740000    -0.9759130000
    2      S       0.0093950000     0.0873100000    -2.4834540000
    3      C       0.0086260000    -1.4852310000    -1.6947860000
    4      C       0.0096730000     0.0876270000     0.0919590000
    5      C       0.0073610000    -1.3025190000    -0.2895030000
    6      S       0.0125230000     0.3312020000     1.8296030000
    7      C       0.0069930000    -1.4204720000     2.0786170000
    8      C       0.0045400000    -2.1287800000     0.8866380000
    9      F      -0.0002640000    -3.4654290000     0.8431750000
   10      C       0.0088830000    -1.8684960000     3.4801710000
   11      O       0.0168650000    -1.0986500000     4.4305970000
   12      O       0.0014200000    -3.2190180000     3.5933120000
   13      C       0.0066430000    -3.7141030000     4.9402940000
   14      H      -0.0003440000    -4.8151330000     4.8571510000
   15      H      -0.8864600000    -3.3608010000     5.4942550000
   16      H       0.9104420000    -3.3712270000     5.4833800000
   17      C      -0.2402960000     2.4054560000    -0.9759130000
   18      H      -1.3004540000     2.6115290000    -0.9759130000
   19      H       0.1889700000     2.8741550000    -1.8490980000
   20      H       0.1889700000     2.8741550000    -0.1027280000
   21      H       0.0072130000    -2.4094880000    -2.2823990000
 ----------------------------------------------------------------

   11   -1389.3186467088      5.05e-07  Convergence criterion met
 Total energy in the final basis set =    -1389.3186467088
        RIMP2         total energy =     -1391.8163312650 a.u.

                    Orbital Energies (a.u.)
 --------------------------------------------------------------

 Alpha MOs
 -- Occupied --
-92.0058 -91.9916 -26.3403 -20.6134 -20.5595 -11.4073 -11.3783 -11.2970
-11.2941 -11.2880 -11.2870 -11.2846 -11.2783 -11.2284  -9.0046  -8.9918
 -6.6854  -6.6848  -6.6844  -6.6729  -6.6722  -6.6710  -1.6575  -1.4658
 -1.3684  -1.2113  -1.1341  -1.0606  -1.0183  -0.9910  -0.9579  -0.9084
 -0.8629  -0.8045  -0.7881  -0.7574  -0.7250  -0.7224  -0.6901  -0.6831
 -0.6726  -0.6584  -0.6098  -0.6048  -0.5941  -0.5714  -0.5650  -0.5589
 -0.5372  -0.5305  -0.5204  -0.4990  -0.4730  -0.4712  -0.4697  -0.4634
 -0.3901  -0.3447  -0.2882

          Ground-State Mulliken Net Atomic Charges

     Atom                 Charge (a.u.)
  ----------------------------------------
      1 C                     0.023740
      2 S                     0.074545
      3 C                    -0.215838
      4 C                    -0.029588
      5 C                    -0.090691
      6 S                    -0.010037
      7 C                    -0.156904
      8 C                     0.389632
      9 F                    -0.208638
     10 C                     0.445406
     11 O                    -0.462543
     12 O                    -0.300885
     13 C                    -0.058636
     14 H                     0.121089
     15 H                     0.094716
     16 H                     0.094698
     17 C                    -0.282627
     18 H                     0.123777
     19 H                     0.117728
     20 H                     0.117895
     21 H                     0.213163
  ----------------------------------------
  Sum of atomic charges =     0.000000

                    Cartesian Multipole Moments
 -----------------------------------------------------------------
    Charge (ESU x 10^10)
                -0.0000
    Dipole Moment (Debye)
         X      -0.2975      Y      -0.5032      Z      -3.2469
       Tot       3.2991
    Quadrupole Moments (Debye-Ang)
        XX     -96.3387     XY      -0.5334     YY     -81.7735
        XZ       0.2118     YZ     -10.1314     ZZ     -96.4215

 Total job time:  60.40s(wall), 2191.96s(cpu)
        *  Thank you very much for using Q-Chem.  Have a nice day.  *
