 Q-Chem 5.4, Q-Chem, Inc., Pleasanton, CA (2021)
 Q-Chem 5.4.0 for Intel X86 EM64T Linux

User input:
--------------------------------------------------------------
$molecule
0 1
C	0.025041	0.997941	-0.975913
S	0.025515	0.093177	-2.483454
C	0.024746	-1.479364	-1.694786
C	0.025793	0.093494	0.091959
C	0.023481	-1.296652	-0.289503
S	0.028643	0.337069	1.829603
C	0.023113	-1.414605	2.078617
C	0.020660	-2.122913	0.886638
F	0.015856	-3.459562	0.843175
C	0.025003	-1.862629	3.480171
O	0.032985	-1.092783	4.430597
O	0.017540	-3.213151	3.593312
C	0.022763	-3.708236	4.940294
H	0.015776	-4.809266	4.857151
H	-0.870340	-3.354934	5.494255
H	0.926562	-3.365360	5.483380
C	-0.692552	2.240848	-0.975913
H	-1.759255	2.071899	-0.975913
H	-0.449478	2.828099	-1.849098
H	-0.449478	2.828099	-0.102728
H	0.023333	-2.403621	-2.282399
$end

$rem
JOBTYPE		SP
EXCHANGE	HF
CORRELATION	pRIMP2
BASIS		cc-pvtz
METHOD		rimp2
AUX_BASIS	rimp2-cc-pvtz
SOLVENT_METHOD	PCM
PURECART	11111
SYMMETRY	false
MEM_TOTAL	110000
SCF_CONVERGENCE = 6
THRESH=10
GUI = 2
$end

$solvent
dielectric 4.90
$end
--------------------------------------------------------------

             Standard Nuclear Orientation (Angstroms)
    I     Atom           X                Y                Z
 ----------------------------------------------------------------
    1      C       0.0250410000     0.9979410000    -0.9759130000
    2      S       0.0255150000     0.0931770000    -2.4834540000
    3      C       0.0247460000    -1.4793640000    -1.6947860000
    4      C       0.0257930000     0.0934940000     0.0919590000
    5      C       0.0234810000    -1.2966520000    -0.2895030000
    6      S       0.0286430000     0.3370690000     1.8296030000
    7      C       0.0231130000    -1.4146050000     2.0786170000
    8      C       0.0206600000    -2.1229130000     0.8866380000
    9      F       0.0158560000    -3.4595620000     0.8431750000
   10      C       0.0250030000    -1.8626290000     3.4801710000
   11      O       0.0329850000    -1.0927830000     4.4305970000
   12      O       0.0175400000    -3.2131510000     3.5933120000
   13      C       0.0227630000    -3.7082360000     4.9402940000
   14      H       0.0157760000    -4.8092660000     4.8571510000
   15      H      -0.8703400000    -3.3549340000     5.4942550000
   16      H       0.9265620000    -3.3653600000     5.4833800000
   17      C      -0.6925520000     2.2408480000    -0.9759130000
   18      H      -1.7592550000     2.0718990000    -0.9759130000
   19      H      -0.4494780000     2.8280990000    -1.8490980000
   20      H      -0.4494780000     2.8280990000    -0.1027280000
   21      H       0.0233330000    -2.4036210000    -2.2823990000
 ----------------------------------------------------------------

   11   -1389.3042086811      4.91e-07  Convergence criterion met
 Total energy in the final basis set =    -1389.3042086811
        RIMP2         total energy =     -1391.8052797355 a.u.

                    Orbital Energies (a.u.)
 --------------------------------------------------------------

 Alpha MOs
 -- Occupied --
-92.0046 -91.9940 -26.3410 -20.6136 -20.5597 -11.4076 -11.3793 -11.3028
-11.2943 -11.2889 -11.2882 -11.2790 -11.2788 -11.2258  -9.0036  -8.9941
 -6.6844  -6.6838  -6.6834  -6.6751  -6.6744  -6.6733  -1.6582  -1.4660
 -1.3686  -1.2132  -1.1355  -1.0612  -1.0191  -0.9896  -0.9584  -0.9065
 -0.8636  -0.8055  -0.7887  -0.7578  -0.7257  -0.7231  -0.6909  -0.6833
 -0.6728  -0.6587  -0.6100  -0.6043  -0.5944  -0.5727  -0.5631  -0.5596
 -0.5328  -0.5300  -0.5195  -0.4993  -0.4737  -0.4716  -0.4703  -0.4605
 -0.3893  -0.3448  -0.2898

          Ground-State Mulliken Net Atomic Charges

     Atom                 Charge (a.u.)
  ----------------------------------------
      1 C                    -0.013616
      2 S                     0.078828
      3 C                    -0.204274
      4 C                    -0.021862
      5 C                    -0.084530
      6 S                     0.000589
      7 C                    -0.155791
      8 C                     0.390126
      9 F                    -0.208049
     10 C                     0.446233
     11 O                    -0.462690
     12 O                    -0.301084
     13 C                    -0.058484
     14 H                     0.121114
     15 H                     0.094715
     16 H                     0.094765
     17 C                    -0.285784
     18 H                     0.123888
     19 H                     0.115800
     20 H                     0.116797
     21 H                     0.213310
  ----------------------------------------
  Sum of atomic charges =     0.000000

                    Cartesian Multipole Moments
 -----------------------------------------------------------------
    Charge (ESU x 10^10)
                -0.0000
    Dipole Moment (Debye)
         X      -0.7750      Y      -1.0969      Z      -3.1196
       Tot       3.3964
    Quadrupole Moments (Debye-Ang)
        XX     -96.0697     XY      -1.3276     YY     -82.9259
        XZ       0.6570     YZ      -9.3403     ZZ     -96.2624

 Total job time:  59.11s(wall), 2056.79s(cpu)
        *  Thank you very much for using Q-Chem.  Have a nice day.  *
