 Q-Chem 5.4, Q-Chem, Inc., Pleasanton, CA (2021)
 Q-Chem 5.4.0 for Intel X86 EM64T Linux

User input:
--------------------------------------------------------------
$molecule
0 1
C	0.000344	0.991323	-0.975913
S	0.000818	0.086559	-2.483454
C	0.000049	-1.485982	-1.694786
C	0.001096	0.086876	0.091959
C	-0.001216	-1.303270	-0.289503
S	0.003946	0.330451	1.829603
C	-0.001584	-1.421223	2.078617
C	-0.004037	-2.129531	0.886638
F	-0.008841	-3.466180	0.843175
C	0.000306	-1.869247	3.480171
O	0.008288	-1.099401	4.430597
O	-0.007157	-3.219769	3.593312
C	-0.001934	-3.714854	4.940294
H	-0.008921	-4.815884	4.857151
H	-0.895037	-3.361552	5.494255
H	0.901865	-3.371978	5.483380
C	0.000344	2.426508	-0.975913
H	-1.007923	2.813546	-0.975913
H	0.504477	2.813546	-1.849098
H	0.504477	2.813546	-0.102728
H	-0.001364	-2.410239	-2.282399
$end

$rem
JOBTYPE		SP
EXCHANGE	HF
CORRELATION	pRIMP2
BASIS		cc-pvtz
METHOD		rimp2
AUX_BASIS	rimp2-cc-pvtz
SOLVENT_METHOD	PCM
PURECART	11111
SYMMETRY	false
MEM_TOTAL	110000
SCF_CONVERGENCE = 6
THRESH=10
GUI = 2
$end

$solvent
dielectric 4.90
$end
--------------------------------------------------------------

             Standard Nuclear Orientation (Angstroms)
    I     Atom           X                Y                Z
 ----------------------------------------------------------------
    1      C       0.0003440000     0.9913230000    -0.9759130000
    2      S       0.0008180000     0.0865590000    -2.4834540000
    3      C       0.0000490000    -1.4859820000    -1.6947860000
    4      C       0.0010960000     0.0868760000     0.0919590000
    5      C      -0.0012160000    -1.3032700000    -0.2895030000
    6      S       0.0039460000     0.3304510000     1.8296030000
    7      C      -0.0015840000    -1.4212230000     2.0786170000
    8      C      -0.0040370000    -2.1295310000     0.8866380000
    9      F      -0.0088410000    -3.4661800000     0.8431750000
   10      C       0.0003060000    -1.8692470000     3.4801710000
   11      O       0.0082880000    -1.0994010000     4.4305970000
   12      O      -0.0071570000    -3.2197690000     3.5933120000
   13      C      -0.0019340000    -3.7148540000     4.9402940000
   14      H      -0.0089210000    -4.8158840000     4.8571510000
   15      H      -0.8950370000    -3.3615520000     5.4942550000
   16      H       0.9018650000    -3.3719780000     5.4833800000
   17      C       0.0003440000     2.4265080000    -0.9759130000
   18      H      -1.0079230000     2.8135460000    -0.9759130000
   19      H       0.5044770000     2.8135460000    -1.8490980000
   20      H       0.5044770000     2.8135460000    -0.1027280000
   21      H      -0.0013640000    -2.4102390000    -2.2823990000
 ----------------------------------------------------------------

   11   -1389.3201187582      5.07e-07  Convergence criterion met
 Total energy in the final basis set =    -1389.3201187582
        RIMP2         total energy =     -1391.8173642561 a.u.

                    Orbital Energies (a.u.)
 --------------------------------------------------------------

 Alpha MOs
 -- Occupied --
-92.0059 -91.9914 -26.3402 -20.6134 -20.5595 -11.4073 -11.3782 -11.2963
-11.2941 -11.2880 -11.2879 -11.2842 -11.2781 -11.2285  -9.0047  -8.9916
 -6.6855  -6.6849  -6.6844  -6.6726  -6.6719  -6.6708  -1.6575  -1.4657
 -1.3683  -1.2110  -1.1339  -1.0605  -1.0182  -0.9912  -0.9578  -0.9086
 -0.8628  -0.8044  -0.7880  -0.7573  -0.7250  -0.7224  -0.6900  -0.6831
 -0.6725  -0.6584  -0.6099  -0.6048  -0.5940  -0.5710  -0.5655  -0.5588
 -0.5377  -0.5305  -0.5205  -0.4989  -0.4729  -0.4711  -0.4696  -0.4636
 -0.3901  -0.3447  -0.2881

          Ground-State Mulliken Net Atomic Charges

     Atom                 Charge (a.u.)
  ----------------------------------------
      1 C                     0.029685
      2 S                     0.073105
      3 C                    -0.215355
      4 C                    -0.024827
      5 C                    -0.093165
      6 S                    -0.011199
      7 C                    -0.157134
      8 C                     0.388516
      9 F                    -0.208702
     10 C                     0.445374
     11 O                    -0.462603
     12 O                    -0.300865
     13 C                    -0.058677
     14 H                     0.121085
     15 H                     0.094728
     16 H                     0.094676
     17 C                    -0.284451
     18 H                     0.122407
     19 H                     0.117408
     20 H                     0.116806
     21 H                     0.213188
  ----------------------------------------
  Sum of atomic charges =     0.000000

                    Cartesian Multipole Moments
 -----------------------------------------------------------------
    Charge (ESU x 10^10)
                -0.0000
    Dipole Moment (Debye)
         X      -0.0173      Y      -0.4291      Z      -3.2710
       Tot       3.2990
    Quadrupole Moments (Debye-Ang)
        XX     -96.3799     XY       0.0175     YY     -81.6378
        XZ      -0.0533     YZ     -10.2419     ZZ     -96.4244

 Total job time:  67.71s(wall), 2452.31s(cpu)
        *  Thank you very much for using Q-Chem.  Have a nice day.  *
