 Q-Chem 5.4, Q-Chem, Inc., Pleasanton, CA (2021)
 Q-Chem 5.4.0 for Intel X86 EM64T Linux

User input:
--------------------------------------------------------------
$molecule
0 1
C	0.013128	0.993006	-0.975913
S	0.013602	0.088242	-2.483454
C	0.012833	-1.484299	-1.694786
C	0.013880	0.088559	0.091959
C	0.011568	-1.301587	-0.289503
S	0.016730	0.332134	1.829603
C	0.011200	-1.419540	2.078617
C	0.008747	-2.127848	0.886638
F	0.003943	-3.464497	0.843175
C	0.013090	-1.867564	3.480171
O	0.021072	-1.097718	4.430597
O	0.005627	-3.218086	3.593312
C	0.010850	-3.713171	4.940294
H	0.003863	-4.814201	4.857151
H	-0.882253	-3.359869	5.494255
H	0.914649	-3.370295	5.483380
C	-0.358325	2.379289	-0.975913
H	-1.432409	2.492179	-0.975913
H	0.028458	2.883617	-1.849098
H	0.028458	2.883617	-0.102728
H	0.011420	-2.408556	-2.282399
$end

$rem
JOBTYPE		SP
EXCHANGE	HF
CORRELATION	pRIMP2
BASIS		cc-pvtz
METHOD		rimp2
AUX_BASIS	rimp2-cc-pvtz
SOLVENT_METHOD	PCM
PURECART	11111
SYMMETRY	false
MEM_TOTAL	110000
SCF_CONVERGENCE = 6
THRESH=10
GUI = 2
$end

$solvent
dielectric 4.90
$end
--------------------------------------------------------------

             Standard Nuclear Orientation (Angstroms)
    I     Atom           X                Y                Z
 ----------------------------------------------------------------
    1      C       0.0131280000     0.9930060000    -0.9759130000
    2      S       0.0136020000     0.0882420000    -2.4834540000
    3      C       0.0128330000    -1.4842990000    -1.6947860000
    4      C       0.0138800000     0.0885590000     0.0919590000
    5      C       0.0115680000    -1.3015870000    -0.2895030000
    6      S       0.0167300000     0.3321340000     1.8296030000
    7      C       0.0112000000    -1.4195400000     2.0786170000
    8      C       0.0087470000    -2.1278480000     0.8866380000
    9      F       0.0039430000    -3.4644970000     0.8431750000
   10      C       0.0130900000    -1.8675640000     3.4801710000
   11      O       0.0210720000    -1.0977180000     4.4305970000
   12      O       0.0056270000    -3.2180860000     3.5933120000
   13      C       0.0108500000    -3.7131710000     4.9402940000
   14      H       0.0038630000    -4.8142010000     4.8571510000
   15      H      -0.8822530000    -3.3598690000     5.4942550000
   16      H       0.9146490000    -3.3702950000     5.4833800000
   17      C      -0.3583250000     2.3792890000    -0.9759130000
   18      H      -1.4324090000     2.4921790000    -0.9759130000
   19      H       0.0284580000     2.8836170000    -1.8490980000
   20      H       0.0284580000     2.8836170000    -0.1027280000
   21      H       0.0114200000    -2.4085560000    -2.2823990000
 ----------------------------------------------------------------

   11   -1389.3164688264      5.02e-07  Convergence criterion met
 Total energy in the final basis set =    -1389.3164688264
        RIMP2         total energy =     -1391.8147051897 a.u.

                    Orbital Energies (a.u.)
 --------------------------------------------------------------

 Alpha MOs
 -- Occupied --
-92.0056 -91.9920 -26.3404 -20.6134 -20.5595 -11.4074 -11.3784 -11.2979
-11.2942 -11.2881 -11.2861 -11.2849 -11.2784 -11.2280  -9.0045  -8.9921
 -6.6853  -6.6847  -6.6842  -6.6732  -6.6725  -6.6714  -1.6577  -1.4658
 -1.3684  -1.2115  -1.1343  -1.0606  -1.0184  -0.9908  -0.9580  -0.9081
 -0.8630  -0.8047  -0.7882  -0.7574  -0.7251  -0.7225  -0.6902  -0.6831
 -0.6726  -0.6585  -0.6098  -0.6047  -0.5941  -0.5718  -0.5645  -0.5590
 -0.5364  -0.5305  -0.5203  -0.4990  -0.4731  -0.4712  -0.4698  -0.4629
 -0.3900  -0.3448  -0.2884

          Ground-State Mulliken Net Atomic Charges

     Atom                 Charge (a.u.)
  ----------------------------------------
      1 C                     0.017391
      2 S                     0.075677
      3 C                    -0.214925
      4 C                    -0.031074
      5 C                    -0.088605
      6 S                    -0.008236
      7 C                    -0.156666
      8 C                     0.389950
      9 F                    -0.208529
     10 C                     0.445581
     11 O                    -0.462532
     12 O                    -0.300923
     13 C                    -0.058598
     14 H                     0.121093
     15 H                     0.094711
     16 H                     0.094711
     17 C                    -0.282608
     18 H                     0.124520
     19 H                     0.117685
     20 H                     0.118236
     21 H                     0.213141
  ----------------------------------------
  Sum of atomic charges =     0.000000

                    Cartesian Multipole Moments
 -----------------------------------------------------------------
    Charge (ESU x 10^10)
                -0.0000
    Dipole Moment (Debye)
         X      -0.4307      Y      -0.5964      Z      -3.2250
       Tot       3.3078
    Quadrupole Moments (Debye-Ang)
        XX     -96.2833     XY      -0.7817     YY     -81.9657
        XZ       0.3364     YZ     -10.0045     ZZ     -96.4040

 Total job time:  60.63s(wall), 2029.27s(cpu)
        *  Thank you very much for using Q-Chem.  Have a nice day.  *
