 Q-Chem 5.4, Q-Chem, Inc., Pleasanton, CA (2021)
 Q-Chem 5.4.0 for Intel X86 EM64T Linux

User input:
--------------------------------------------------------------
$molecule
0 1
C	0.021219	0.995951	-0.975913
S	0.021693	0.091187	-2.483454
C	0.020924	-1.481354	-1.694786
C	0.021971	0.091504	0.091959
C	0.019659	-1.298642	-0.289503
S	0.024821	0.335079	1.829603
C	0.019291	-1.416595	2.078617
C	0.016838	-2.124903	0.886638
F	0.012034	-3.461552	0.843175
C	0.021181	-1.864619	3.480171
O	0.029163	-1.094773	4.430597
O	0.013718	-3.215141	3.593312
C	0.018941	-3.710226	4.940294
H	0.011954	-4.811256	4.857151
H	-0.874162	-3.356924	5.494255
H	0.922740	-3.367350	5.483380
C	-0.585317	2.296671	-0.975913
H	-1.662686	2.221334	-0.975913
H	-0.291986	2.860502	-1.849098
H	-0.291986	2.860502	-0.102728
H	0.019511	-2.405611	-2.282399
$end

$rem
JOBTYPE		SP
EXCHANGE	HF
CORRELATION	pRIMP2
BASIS		cc-pvtz
METHOD		rimp2
AUX_BASIS	rimp2-cc-pvtz
SOLVENT_METHOD	PCM
PURECART	11111
SYMMETRY	false
MEM_TOTAL	110000
SCF_CONVERGENCE = 6
THRESH=10
GUI = 2
$end

$solvent
dielectric 4.90
$end
--------------------------------------------------------------

             Standard Nuclear Orientation (Angstroms)
    I     Atom           X                Y                Z
 ----------------------------------------------------------------
    1      C       0.0212190000     0.9959510000    -0.9759130000
    2      S       0.0216930000     0.0911870000    -2.4834540000
    3      C       0.0209240000    -1.4813540000    -1.6947860000
    4      C       0.0219710000     0.0915040000     0.0919590000
    5      C       0.0196590000    -1.2986420000    -0.2895030000
    6      S       0.0248210000     0.3350790000     1.8296030000
    7      C       0.0192910000    -1.4165950000     2.0786170000
    8      C       0.0168380000    -2.1249030000     0.8866380000
    9      F       0.0120340000    -3.4615520000     0.8431750000
   10      C       0.0211810000    -1.8646190000     3.4801710000
   11      O       0.0291630000    -1.0947730000     4.4305970000
   12      O       0.0137180000    -3.2151410000     3.5933120000
   13      C       0.0189410000    -3.7102260000     4.9402940000
   14      H       0.0119540000    -4.8112560000     4.8571510000
   15      H      -0.8741620000    -3.3569240000     5.4942550000
   16      H       0.9227400000    -3.3673500000     5.4833800000
   17      C      -0.5853170000     2.2966710000    -0.9759130000
   18      H      -1.6626860000     2.2213340000    -0.9759130000
   19      H      -0.2919860000     2.8605020000    -1.8490980000
   20      H      -0.2919860000     2.8605020000    -0.1027280000
   21      H       0.0195110000    -2.4056110000    -2.2823990000
 ----------------------------------------------------------------

   11   -1389.3092474322      4.95e-07  Convergence criterion met
 Total energy in the final basis set =    -1389.3092474322
        RIMP2         total energy =     -1391.8091983030 a.u.

                    Orbital Energies (a.u.)
 --------------------------------------------------------------

 Alpha MOs
 -- Occupied --
-92.0050 -91.9932 -26.3408 -20.6135 -20.5596 -11.4075 -11.3789 -11.3007
-11.2942 -11.2881 -11.2875 -11.2816 -11.2788 -11.2267  -9.0040  -8.9933
 -6.6848  -6.6841  -6.6837  -6.6743  -6.6736  -6.6725  -1.6580  -1.4659
 -1.3685  -1.2125  -1.1350  -1.0609  -1.0188  -0.9901  -0.9582  -0.9072
 -0.8634  -0.8052  -0.7885  -0.7576  -0.7254  -0.7229  -0.6906  -0.6833
 -0.6727  -0.6586  -0.6099  -0.6044  -0.5943  -0.5725  -0.5635  -0.5594
 -0.5341  -0.5303  -0.5198  -0.4992  -0.4734  -0.4714  -0.4701  -0.4616
 -0.3896  -0.3448  -0.2892

          Ground-State Mulliken Net Atomic Charges

     Atom                 Charge (a.u.)
  ----------------------------------------
      1 C                    -0.001124
      2 S                     0.077835
      3 C                    -0.209340
      4 C                    -0.027800
      5 C                    -0.084985
      6 S                    -0.002907
      7 C                    -0.156067
      8 C                     0.390124
      9 F                    -0.208228
     10 C                     0.446002
     11 O                    -0.462604
     12 O                    -0.301026
     13 C                    -0.058521
     14 H                     0.121105
     15 H                     0.094710
     16 H                     0.094744
     17 C                    -0.284327
     18 H                     0.124807
     19 H                     0.116741
     20 H                     0.117661
     21 H                     0.213199
  ----------------------------------------
  Sum of atomic charges =     0.000000

                    Cartesian Multipole Moments
 -----------------------------------------------------------------
    Charge (ESU x 10^10)
                -0.0000
    Dipole Moment (Debye)
         X      -0.6716      Y      -0.8935      Z      -3.1619
       Tot       3.3536
    Quadrupole Moments (Debye-Ang)
        XX     -96.1395     XY      -1.1826     YY     -82.5545
        XZ       0.5605     YZ      -9.6093     ZZ     -96.3268

 Total job time:  74.23s(wall), 3045.92s(cpu)
        *  Thank you very much for using Q-Chem.  Have a nice day.  *
