 Q-Chem 5.4, Q-Chem, Inc., Pleasanton, CA (2021)
 Q-Chem 5.4.0 for Intel X86 EM64T Linux

User input:
--------------------------------------------------------------
$molecule
0 1
C	0.014560	-8.517702	0.320589
C	-0.180211	-7.641575	-0.737240
S	0.299553	-7.638634	1.842356
C	-0.114873	-6.264785	-0.366488
H	-0.368061	-7.966081	-1.768528
C	0.131236	-6.072714	1.038637
C	0.253435	-4.787049	1.588197
C	-0.249014	-5.162801	-1.258831
C	-0.122513	-3.874817	-0.709695
C	0.121043	-3.683952	0.697430
O	-0.505933	-5.499772	-2.553323
O	0.512697	-4.459055	2.888369
C	0.080869	-5.329063	3.927625
H	0.173159	-4.755694	4.869656
H	0.716363	-6.238095	4.007459
H	-0.978072	-5.637262	3.789565
C	-0.246949	-4.572261	-3.600064
H	-0.344574	-5.139743	-4.544887
H	0.779898	-4.153131	-3.532074
H	-0.983261	-3.739531	-3.612378
C	0.188009	-2.306654	1.064246
S	-0.278644	-2.306501	-1.517360
C	0.000000	-1.435185	0.000000
H	0.373017	-1.978138	2.094685
C	0.000000	0.000000	0.000000
S	0.693394	0.581209	1.507541
C	1.897536	1.592607	0.718873
C	0.693330	0.580791	-1.067872
C	1.756758	1.476132	-0.686410
S	0.508573	0.422041	-2.805516
C	1.846879	1.552232	-3.054530
C	2.387897	2.009402	-1.862551
F	3.408741	2.872264	-1.819088
C	2.191300	1.838768	-4.456084
O	1.606694	1.337806	-5.406510
O	3.221062	2.712584	-4.569225
C	3.603677	3.026817	-5.916207
H	4.442623	3.739898	-5.833064
H	2.758956	3.483875	-6.470168
H	3.921969	2.114070	-6.459293
H	2.604650	2.187790	1.306486
H	0.900177	-9.143623	0.159475
H	-0.866566	-9.149441	0.483604
H	1.062246	-1.443175	-0.194856
$end

$rem
JOBTYPE		SP
EXCHANGE	HF
CORRELATION	pRIMP2
BASIS		cc-pvtz
METHOD		rimp2
AUX_BASIS	rimp2-cc-pvtz
SOLVENT_METHOD	PCM
PURECART	11111
SYMMETRY	false
MEM_TOTAL	110000
SCF_CONVERGENCE = 6
THRESH=10
GUI = 2
$end

$solvent
dielectric 4.90
$end
--------------------------------------------------------------

             Standard Nuclear Orientation (Angstroms)
    I     Atom           X                Y                Z
 ----------------------------------------------------------------
    1      C       0.0145600000    -8.5177020000     0.3205890000
    2      C      -0.1802110000    -7.6415750000    -0.7372400000
    3      S       0.2995530000    -7.6386340000     1.8423560000
    4      C      -0.1148730000    -6.2647850000    -0.3664880000
    5      H      -0.3680610000    -7.9660810000    -1.7685280000
    6      C       0.1312360000    -6.0727140000     1.0386370000
    7      C       0.2534350000    -4.7870490000     1.5881970000
    8      C      -0.2490140000    -5.1628010000    -1.2588310000
    9      C      -0.1225130000    -3.8748170000    -0.7096950000
   10      C       0.1210430000    -3.6839520000     0.6974300000
   11      O      -0.5059330000    -5.4997720000    -2.5533230000
   12      O       0.5126970000    -4.4590550000     2.8883690000
   13      C       0.0808690000    -5.3290630000     3.9276250000
   14      H       0.1731590000    -4.7556940000     4.8696560000
   15      H       0.7163630000    -6.2380950000     4.0074590000
   16      H      -0.9780720000    -5.6372620000     3.7895650000
   17      C      -0.2469490000    -4.5722610000    -3.6000640000
   18      H      -0.3445740000    -5.1397430000    -4.5448870000
   19      H       0.7798980000    -4.1531310000    -3.5320740000
   20      H      -0.9832610000    -3.7395310000    -3.6123780000
   21      C       0.1880090000    -2.3066540000     1.0642460000
   22      S      -0.2786440000    -2.3065010000    -1.5173600000
   23      C       0.0000000000    -1.4351850000     0.0000000000
   24      H       0.3730170000    -1.9781380000     2.0946850000
   25      C       0.0000000000     0.0000000000     0.0000000000
   26      S       0.6933940000     0.5812090000     1.5075410000
   27      C       1.8975360000     1.5926070000     0.7188730000
   28      C       0.6933300000     0.5807910000    -1.0678720000
   29      C       1.7567580000     1.4761320000    -0.6864100000
   30      S       0.5085730000     0.4220410000    -2.8055160000
   31      C       1.8468790000     1.5522320000    -3.0545300000
   32      C       2.3878970000     2.0094020000    -1.8625510000
   33      F       3.4087410000     2.8722640000    -1.8190880000
   34      C       2.1913000000     1.8387680000    -4.4560840000
   35      O       1.6066940000     1.3378060000    -5.4065100000
   36      O       3.2210620000     2.7125840000    -4.5692250000
   37      C       3.6036770000     3.0268170000    -5.9162070000
   38      H       4.4426230000     3.7398980000    -5.8330640000
   39      H       2.7589560000     3.4838750000    -6.4701680000
   40      H       3.9219690000     2.1140700000    -6.4592930000
   41      H       2.6046500000     2.1877900000     1.3064860000
   42      H       0.9001770000    -9.1436230000     0.1594750000
   43      H      -0.8665660000    -9.1494410000     0.4836040000
   44      H       1.0622460000    -1.4431750000    -0.1948560000
 ----------------------------------------------------------------

   11   -2755.2892837552      7.43e-07  Convergence criterion met
 Total energy in the final basis set =    -2755.2892837552
        RIMP2         total energy =     -2760.3962534883 a.u.

                    Orbital Energies (a.u.)
 --------------------------------------------------------------

 Alpha MOs
 -- Occupied --
-92.0136 -92.0022 -91.9740 -91.9574 -26.3441 -20.6157 -20.5871 -20.5857
-20.5622 -11.4105 -11.3832 -11.3183 -11.3086 -11.3058 -11.3035 -11.2987
-11.2929 -11.2895 -11.2882 -11.2831 -11.2829 -11.2821 -11.2805 -11.2716
-11.2708 -11.2573 -11.2558 -11.2489 -11.2350  -9.0131  -9.0024  -8.9768
 -8.9601  -6.6938  -6.6931  -6.6927  -6.6833  -6.6825  -6.6815  -6.6579
 -6.6570  -6.6557  -6.6413  -6.6404  -6.6393  -1.6613  -1.4682  -1.4096
 -1.4084  -1.3709  -1.2405  -1.2003  -1.1733  -1.1406  -1.0991  -1.0493
 -1.0445  -1.0276  -1.0019  -0.9953  -0.9665  -0.9556  -0.9492  -0.9423
 -0.8927  -0.8719  -0.8590  -0.8191  -0.7937  -0.7878  -0.7820  -0.7677
 -0.7575  -0.7366  -0.7263  -0.7117  -0.6986  -0.6945  -0.6856  -0.6819
 -0.6747  -0.6673  -0.6550  -0.6480  -0.6370  -0.6309  -0.6192  -0.6150
 -0.6104  -0.6020  -0.5935  -0.5791  -0.5698  -0.5662  -0.5588  -0.5553
 -0.5461  -0.5333  -0.5298  -0.5247  -0.5165  -0.5110  -0.5073  -0.4990
 -0.4840  -0.4813  -0.4780  -0.4734  -0.4700  -0.4623  -0.4567  -0.4457
 -0.4300  -0.3972  -0.3771  -0.3708  -0.3512  -0.3051  -0.2847  -0.2136

          Ground-State Mulliken Net Atomic Charges

     Atom                 Charge (a.u.)
  ----------------------------------------
      1 C                    -0.069837
      2 C                    -0.264695
      3 S                    -0.138101
      4 C                    -0.043990
      5 H                     0.192982
      6 C                    -0.050300
      7 C                     0.220757
      8 C                     0.222320
      9 C                    -0.062826
     10 C                    -0.044478
     11 O                    -0.335197
     12 O                    -0.344426
     13 C                    -0.082839
     14 H                     0.119546
     15 H                     0.092213
     16 H                     0.093038
     17 C                    -0.087757
     18 H                     0.123450
     19 H                     0.092137
     20 H                     0.090567
     21 C                    -0.280073
     22 S                    -0.103834
     23 C                     0.083067
     24 H                     0.198894
     25 C                    -0.088037
     26 S                     0.089185
     27 C                    -0.175636
     28 C                     0.020134
     29 C                    -0.114013
     30 S                     0.034788
     31 C                    -0.159073
     32 C                     0.401288
     33 F                    -0.206726
     34 C                     0.447652
     35 O                    -0.460916
     36 O                    -0.300794
     37 C                    -0.058448
     38 H                     0.121581
     39 H                     0.095315
     40 H                     0.095193
     41 H                     0.219324
     42 H                     0.116695
     43 H                     0.114345
     44 H                     0.187524
  ----------------------------------------
  Sum of atomic charges =     0.000000

                    Cartesian Multipole Moments
 -----------------------------------------------------------------
    Charge (ESU x 10^10)
                 0.0000
    Dipole Moment (Debye)
         X       3.0552      Y       2.3724      Z       2.4099
       Tot       4.5574
    Quadrupole Moments (Debye-Ang)
        XX    -191.9249     XY       8.8736     YY    -186.8818
        XZ      -8.7242     YZ      -0.8001     ZZ    -186.8150

 Total job time:  330.07s(wall), 10723.58s(cpu)
        *  Thank you very much for using Q-Chem.  Have a nice day.  *
