 Q-Chem 5.4, Q-Chem, Inc., Pleasanton, CA (2021)
 Q-Chem 5.4.0 for Intel X86 EM64T Linux

User input:
--------------------------------------------------------------
$molecule
0 1
C	-0.254945	-8.517702	-0.194917
C	0.680596	-7.641575	0.335839
S	-1.603876	-7.638634	-0.954772
C	0.354585	-6.264785	0.147576
H	1.591356	-7.966081	0.854836
C	-0.879999	-6.072714	-0.567090
C	-1.379534	-4.787049	-0.826731
C	1.124384	-5.162801	0.618405
C	0.622407	-3.874817	0.362333
C	-0.612067	-3.683952	-0.355575
O	2.281166	-5.499772	1.253677
O	-2.542174	-4.459055	-1.463859
C	-3.060718	-5.329063	-2.462679
H	-3.841678	-4.755694	-2.997507
H	-3.530361	-6.238095	-2.027179
H	-2.274283	-5.637262	-3.185132
C	2.916545	-4.572261	2.124902
H	3.703073	-5.139743	2.657438
H	2.204417	-4.153131	2.867810
H	3.399269	-3.739531	1.568770
C	-0.936109	-2.306654	-0.540061
S	1.341474	-2.306501	0.761887
C	0.000000	-1.435185	0.000000
H	-1.844392	-1.978138	-1.060690
C	0.000000	0.000000	0.000000
S	0.234628	0.873813	1.507541
C	0.640889	2.392969	0.718873
C	0.234815	0.873434	-1.067872
C	0.592377	2.216811	-0.686410
S	0.174526	0.637422	-2.805516
C	0.622551	2.330840	-3.054530
C	0.803505	3.015647	-1.862551
F	1.144815	4.307994	-1.819088
C	0.740334	2.763108	-4.456084
O	0.548793	2.017428	-5.406510
O	1.082665	4.069544	-4.569225
C	1.215848	4.546407	-5.916207
H	1.494066	5.611729	-5.833064
H	0.261736	4.436296	-6.470168
H	2.000108	3.981294	-6.459293
H	0.878739	3.286099	1.306486
H	-0.700788	-9.143623	0.587067
H	0.186556	-9.149441	-0.974683
H	-0.533530	-1.443175	0.938979
$end

$rem
JOBTYPE		SP
EXCHANGE	HF
CORRELATION	pRIMP2
BASIS		cc-pvtz
METHOD		rimp2
AUX_BASIS	rimp2-cc-pvtz
SOLVENT_METHOD	PCM
PURECART	11111
SYMMETRY	false
MEM_TOTAL	110000
SCF_CONVERGENCE = 6
THRESH=10
GUI = 2
$end

$solvent
dielectric 4.90
$end
--------------------------------------------------------------

             Standard Nuclear Orientation (Angstroms)
    I     Atom           X                Y                Z
 ----------------------------------------------------------------
    1      C      -0.2549450000    -8.5177020000    -0.1949170000
    2      C       0.6805960000    -7.6415750000     0.3358390000
    3      S      -1.6038760000    -7.6386340000    -0.9547720000
    4      C       0.3545850000    -6.2647850000     0.1475760000
    5      H       1.5913560000    -7.9660810000     0.8548360000
    6      C      -0.8799990000    -6.0727140000    -0.5670900000
    7      C      -1.3795340000    -4.7870490000    -0.8267310000
    8      C       1.1243840000    -5.1628010000     0.6184050000
    9      C       0.6224070000    -3.8748170000     0.3623330000
   10      C      -0.6120670000    -3.6839520000    -0.3555750000
   11      O       2.2811660000    -5.4997720000     1.2536770000
   12      O      -2.5421740000    -4.4590550000    -1.4638590000
   13      C      -3.0607180000    -5.3290630000    -2.4626790000
   14      H      -3.8416780000    -4.7556940000    -2.9975070000
   15      H      -3.5303610000    -6.2380950000    -2.0271790000
   16      H      -2.2742830000    -5.6372620000    -3.1851320000
   17      C       2.9165450000    -4.5722610000     2.1249020000
   18      H       3.7030730000    -5.1397430000     2.6574380000
   19      H       2.2044170000    -4.1531310000     2.8678100000
   20      H       3.3992690000    -3.7395310000     1.5687700000
   21      C      -0.9361090000    -2.3066540000    -0.5400610000
   22      S       1.3414740000    -2.3065010000     0.7618870000
   23      C       0.0000000000    -1.4351850000     0.0000000000
   24      H      -1.8443920000    -1.9781380000    -1.0606900000
   25      C       0.0000000000     0.0000000000     0.0000000000
   26      S       0.2346280000     0.8738130000     1.5075410000
   27      C       0.6408890000     2.3929690000     0.7188730000
   28      C       0.2348150000     0.8734340000    -1.0678720000
   29      C       0.5923770000     2.2168110000    -0.6864100000
   30      S       0.1745260000     0.6374220000    -2.8055160000
   31      C       0.6225510000     2.3308400000    -3.0545300000
   32      C       0.8035050000     3.0156470000    -1.8625510000
   33      F       1.1448150000     4.3079940000    -1.8190880000
   34      C       0.7403340000     2.7631080000    -4.4560840000
   35      O       0.5487930000     2.0174280000    -5.4065100000
   36      O       1.0826650000     4.0695440000    -4.5692250000
   37      C       1.2158480000     4.5464070000    -5.9162070000
   38      H       1.4940660000     5.6117290000    -5.8330640000
   39      H       0.2617360000     4.4362960000    -6.4701680000
   40      H       2.0001080000     3.9812940000    -6.4592930000
   41      H       0.8787390000     3.2860990000     1.3064860000
   42      H      -0.7007880000    -9.1436230000     0.5870670000
   43      H       0.1865560000    -9.1494410000    -0.9746830000
   44      H      -0.5335300000    -1.4431750000     0.9389790000
 ----------------------------------------------------------------

   11   -2755.3411105270      7.85e-07  Convergence criterion met
 Total energy in the final basis set =    -2755.3411105270
        RIMP2         total energy =     -2760.4293599395 a.u.

                    Orbital Energies (a.u.)
 --------------------------------------------------------------

 Alpha MOs
 -- Occupied --
-92.0170 -91.9984 -91.9774 -91.9576 -26.3436 -20.6151 -20.5868 -20.5865
-20.5616 -11.4097 -11.3827 -11.3121 -11.3087 -11.3065 -11.2998 -11.2985
-11.2982 -11.2890 -11.2852 -11.2844 -11.2829 -11.2823 -11.2791 -11.2725
-11.2722 -11.2577 -11.2568 -11.2491 -11.2356  -9.0157  -8.9985  -8.9797
 -8.9602  -6.6964  -6.6959  -6.6953  -6.6795  -6.6788  -6.6777  -6.6607
 -6.6599  -6.6586  -6.6415  -6.6405  -6.6395  -1.6607  -1.4675  -1.4100
 -1.4085  -1.3702  -1.2290  -1.2025  -1.1732  -1.1379  -1.0994  -1.0457
 -1.0445  -1.0246  -1.0036  -0.9967  -0.9629  -0.9590  -0.9480  -0.9403
 -0.8932  -0.8687  -0.8663  -0.8128  -0.7995  -0.7885  -0.7844  -0.7673
 -0.7568  -0.7376  -0.7255  -0.7167  -0.6974  -0.6863  -0.6847  -0.6795
 -0.6741  -0.6605  -0.6559  -0.6482  -0.6342  -0.6306  -0.6194  -0.6146
 -0.6117  -0.5993  -0.5917  -0.5757  -0.5716  -0.5644  -0.5581  -0.5526
 -0.5478  -0.5333  -0.5311  -0.5269  -0.5130  -0.5076  -0.5069  -0.5011
 -0.4851  -0.4812  -0.4762  -0.4743  -0.4728  -0.4687  -0.4602  -0.4457
 -0.4253  -0.3981  -0.3851  -0.3696  -0.3510  -0.3010  -0.2886  -0.2194

          Ground-State Mulliken Net Atomic Charges

     Atom                 Charge (a.u.)
  ----------------------------------------
      1 C                    -0.070009
      2 C                    -0.263665
      3 S                    -0.136318
      4 C                    -0.042848
      5 H                     0.192890
      6 C                    -0.052048
      7 C                     0.224270
      8 C                     0.222147
      9 C                    -0.075530
     10 C                    -0.052927
     11 O                    -0.334952
     12 O                    -0.343627
     13 C                    -0.082590
     14 H                     0.120165
     15 H                     0.091765
     16 H                     0.093195
     17 C                    -0.086929
     18 H                     0.123106
     19 H                     0.091626
     20 H                     0.090312
     21 C                    -0.251643
     22 S                    -0.073131
     23 C                     0.057045
     24 H                     0.209175
     25 C                    -0.107984
     26 S                     0.088531
     27 C                    -0.181398
     28 C                     0.047237
     29 C                    -0.114992
     30 S                     0.007754
     31 C                    -0.156345
     32 C                     0.400348
     33 F                    -0.207019
     34 C                     0.443981
     35 O                    -0.460540
     36 O                    -0.300694
     37 C                    -0.058450
     38 H                     0.121383
     39 H                     0.095087
     40 H                     0.095249
     41 H                     0.218733
     42 H                     0.116740
     43 H                     0.114592
     44 H                     0.188309
  ----------------------------------------
  Sum of atomic charges =     0.000000

                    Cartesian Multipole Moments
 -----------------------------------------------------------------
    Charge (ESU x 10^10)
                -0.0000
    Dipole Moment (Debye)
         X       0.5390      Y       3.1379      Z       3.4945
       Tot       4.7274
    Quadrupole Moments (Debye-Ang)
        XX    -192.9213     XY       0.9227     YY    -177.4600
        XZ       7.2770     YZ      -8.9740     ZZ    -195.5826

 Total job time:  349.56s(wall), 10996.01s(cpu)
        *  Thank you very much for using Q-Chem.  Have a nice day.  *
