 Q-Chem 5.4, Q-Chem, Inc., Pleasanton, CA (2021)
 Q-Chem 5.4.0 for Intel X86 EM64T Linux

User input:
--------------------------------------------------------------
$molecule
0 1
C	0.095966	-8.517702	-0.306235
C	-0.082807	-7.641575	0.754415
S	0.348635	-7.638634	-1.833702
C	-0.017401	-6.264785	0.383675
H	-0.259008	-7.966081	1.787757
C	0.231913	-6.072714	-1.020885
C	0.305044	-4.787049	-1.579097
C	-0.196549	-5.162801	1.268082
C	-0.127606	-3.874817	0.708796
C	0.124792	-3.683952	-0.696769
O	-0.397867	-5.499772	2.572378
O	0.506103	-4.459055	-2.889532
C	1.267335	-5.329063	-3.718420
H	1.502804	-4.755694	-4.635204
H	0.697471	-6.238095	-4.010790
H	2.215194	-5.637262	-3.226506
C	-0.999238	-4.572261	3.467415
H	-1.230649	-5.139743	4.388648
H	-1.940905	-4.153131	3.052323
H	-0.311543	-3.739531	3.730819
C	0.187323	-2.306654	-1.064366
S	-0.257128	-2.306501	1.521154
C	-0.000000	-1.435185	-0.000000
H	0.365903	-1.978138	-2.095939
C	0.000000	0.000000	0.000000
S	0.581934	0.692785	1.507541
C	1.592155	1.897915	0.718873
C	0.581944	0.692363	-1.067872
C	1.473741	1.758764	-0.686410
S	0.427560	0.503942	-2.805516
C	1.549278	1.849357	-3.054530
C	2.002690	2.393529	-1.862551
F	2.858191	3.420549	-1.819088
C	1.838710	2.191348	-4.456084
O	1.349977	1.596481	-5.406510
O	2.701091	3.230705	-4.569225
C	3.023327	3.606605	-5.916207
H	3.725703	4.454534	-5.833064
H	2.112072	3.910035	-6.470168
H	3.495281	2.762996	-6.459293
H	2.185174	2.606846	1.306486
H	-0.791346	-9.143623	-0.457736
H	0.979708	-9.149441	-0.158056
H	-1.064830	-1.443175	-0.180205
$end

$rem
JOBTYPE		SP
EXCHANGE	HF
CORRELATION	pRIMP2
BASIS		cc-pvtz
METHOD		rimp2
AUX_BASIS	rimp2-cc-pvtz
SOLVENT_METHOD	PCM
PURECART	11111
SYMMETRY	false
MEM_TOTAL	110000
SCF_CONVERGENCE = 6
THRESH=10
GUI = 2
$end

$solvent
dielectric 4.90
$end
--------------------------------------------------------------

             Standard Nuclear Orientation (Angstroms)
    I     Atom           X                Y                Z
 ----------------------------------------------------------------
    1      C       0.0959660000    -8.5177020000    -0.3062350000
    2      C      -0.0828070000    -7.6415750000     0.7544150000
    3      S       0.3486350000    -7.6386340000    -1.8337020000
    4      C      -0.0174010000    -6.2647850000     0.3836750000
    5      H      -0.2590080000    -7.9660810000     1.7877570000
    6      C       0.2319130000    -6.0727140000    -1.0208850000
    7      C       0.3050440000    -4.7870490000    -1.5790970000
    8      C      -0.1965490000    -5.1628010000     1.2680820000
    9      C      -0.1276060000    -3.8748170000     0.7087960000
   10      C       0.1247920000    -3.6839520000    -0.6967690000
   11      O      -0.3978670000    -5.4997720000     2.5723780000
   12      O       0.5061030000    -4.4590550000    -2.8895320000
   13      C       1.2673350000    -5.3290630000    -3.7184200000
   14      H       1.5028040000    -4.7556940000    -4.6352040000
   15      H       0.6974710000    -6.2380950000    -4.0107900000
   16      H       2.2151940000    -5.6372620000    -3.2265060000
   17      C      -0.9992380000    -4.5722610000     3.4674150000
   18      H      -1.2306490000    -5.1397430000     4.3886480000
   19      H      -1.9409050000    -4.1531310000     3.0523230000
   20      H      -0.3115430000    -3.7395310000     3.7308190000
   21      C       0.1873230000    -2.3066540000    -1.0643660000
   22      S      -0.2571280000    -2.3065010000     1.5211540000
   23      C       0.0000000000    -1.4351850000     0.0000000000
   24      H       0.3659030000    -1.9781380000    -2.0959390000
   25      C       0.0000000000     0.0000000000     0.0000000000
   26      S       0.5819340000     0.6927850000     1.5075410000
   27      C       1.5921550000     1.8979150000     0.7188730000
   28      C       0.5819440000     0.6923630000    -1.0678720000
   29      C       1.4737410000     1.7587640000    -0.6864100000
   30      S       0.4275600000     0.5039420000    -2.8055160000
   31      C       1.5492780000     1.8493570000    -3.0545300000
   32      C       2.0026900000     2.3935290000    -1.8625510000
   33      F       2.8581910000     3.4205490000    -1.8190880000
   34      C       1.8387100000     2.1913480000    -4.4560840000
   35      O       1.3499770000     1.5964810000    -5.4065100000
   36      O       2.7010910000     3.2307050000    -4.5692250000
   37      C       3.0233270000     3.6066050000    -5.9162070000
   38      H       3.7257030000     4.4545340000    -5.8330640000
   39      H       2.1120720000     3.9100350000    -6.4701680000
   40      H       3.4952810000     2.7629960000    -6.4592930000
   41      H       2.1851740000     2.6068460000     1.3064860000
   42      H      -0.7913460000    -9.1436230000    -0.4577360000
   43      H       0.9797080000    -9.1494410000    -0.1580560000
   44      H      -1.0648300000    -1.4431750000    -0.1802050000
 ----------------------------------------------------------------

   11   -2755.3038691838      8.16e-07  Convergence criterion met
 Total energy in the final basis set =    -2755.3038691838
        RIMP2         total energy =     -2760.4053333787 a.u.

                    Orbital Energies (a.u.)
 --------------------------------------------------------------

 Alpha MOs
 -- Occupied --
-92.0125 -92.0026 -91.9805 -91.9568 -26.3446 -20.6156 -20.5870 -20.5866
-20.5621 -11.4104 -11.3843 -11.3138 -11.3089 -11.3072 -11.3037 -11.2987
-11.2944 -11.2894 -11.2864 -11.2849 -11.2839 -11.2820 -11.2774 -11.2733
-11.2707 -11.2575 -11.2555 -11.2485 -11.2343  -9.0117  -9.0027  -8.9827
 -8.9595  -6.6925  -6.6917  -6.6913  -6.6837  -6.6830  -6.6819  -6.6638
 -6.6629  -6.6616  -6.6407  -6.6398  -6.6387  -1.6616  -1.4681  -1.4104
 -1.4084  -1.3708  -1.2336  -1.2021  -1.1728  -1.1389  -1.0996  -1.0476
 -1.0457  -1.0254  -1.0029  -0.9972  -0.9639  -0.9596  -0.9483  -0.9411
 -0.8940  -0.8710  -0.8631  -0.8113  -0.8004  -0.7909  -0.7827  -0.7664
 -0.7578  -0.7369  -0.7264  -0.7126  -0.6985  -0.6926  -0.6854  -0.6812
 -0.6746  -0.6628  -0.6564  -0.6483  -0.6388  -0.6309  -0.6189  -0.6143
 -0.6120  -0.6002  -0.5929  -0.5783  -0.5705  -0.5660  -0.5585  -0.5563
 -0.5402  -0.5348  -0.5306  -0.5269  -0.5128  -0.5100  -0.5076  -0.5002
 -0.4858  -0.4820  -0.4772  -0.4743  -0.4700  -0.4643  -0.4580  -0.4459
 -0.4318  -0.3932  -0.3847  -0.3697  -0.3500  -0.3019  -0.2876  -0.2142

          Ground-State Mulliken Net Atomic Charges

     Atom                 Charge (a.u.)
  ----------------------------------------
      1 C                    -0.069645
      2 C                    -0.268722
      3 S                    -0.138832
      4 C                    -0.045636
      5 H                     0.192280
      6 C                    -0.054045
      7 C                     0.228600
      8 C                     0.228849
      9 C                    -0.073415
     10 C                    -0.050251
     11 O                    -0.334463
     12 O                    -0.344392
     13 C                    -0.083247
     14 H                     0.120945
     15 H                     0.092544
     16 H                     0.092617
     17 C                    -0.088401
     18 H                     0.124477
     19 H                     0.092540
     20 H                     0.089415
     21 C                    -0.271115
     22 S                    -0.102315
     23 C                     0.079998
     24 H                     0.200286
     25 C                    -0.062784
     26 S                     0.095872
     27 C                    -0.190524
     28 C                    -0.023063
     29 C                    -0.091332
     30 S                     0.026391
     31 C                    -0.163639
     32 C                     0.404956
     33 F                    -0.205552
     34 C                     0.446696
     35 O                    -0.461310
     36 O                    -0.300924
     37 C                    -0.058386
     38 H                     0.121637
     39 H                     0.095260
     40 H                     0.095189
     41 H                     0.218043
     42 H                     0.116234
     43 H                     0.113911
     44 H                     0.205251
  ----------------------------------------
  Sum of atomic charges =     0.000000

                    Cartesian Multipole Moments
 -----------------------------------------------------------------
    Charge (ESU x 10^10)
                -0.0000
    Dipole Moment (Debye)
         X       1.3462      Y       2.8149      Z       2.8504
       Tot       4.2262
    Quadrupole Moments (Debye-Ang)
        XX    -190.7398     XY       8.7631     YY    -185.1435
        XZ     -12.6832     YZ      -9.6959     ZZ    -191.4989

 Total job time:  327.71s(wall), 10265.78s(cpu)
        *  Thank you very much for using Q-Chem.  Have a nice day.  *
