 Q-Chem 5.4, Q-Chem, Inc., Pleasanton, CA (2021)
 Q-Chem 5.4.0 for Intel X86 EM64T Linux

User input:
--------------------------------------------------------------
$molecule
0 1
C	0.284919	-8.517702	0.147685
C	-0.728574	-7.641575	-0.212552
S	1.745304	-7.638634	0.661757
C	-0.374824	-6.264785	-0.083761
H	-1.715621	-7.966081	-0.565513
C	0.965104	-6.072714	0.405665
C	1.502136	-4.787049	0.574617
C	-1.214687	-5.162801	-0.413763
C	-0.675870	-3.874817	-0.248748
C	0.664513	-3.683952	0.243888
O	-2.464209	-5.499772	-0.838511
O	2.757750	-4.459055	1.000176
C	3.441858	-5.329063	1.893778
H	4.303826	-4.755694	2.284868
H	3.828743	-6.238095	1.383341
H	2.792824	-5.637262	2.741817
C	-3.241222	-4.572261	-1.586168
H	-4.108274	-5.139743	-1.974033
H	-2.668916	-4.153131	-2.441448
H	-3.620041	-3.739531	-0.954660
C	1.015668	-2.306654	0.369302
S	-1.453394	-2.306501	-0.517367
C	0.000000	-1.435185	0.000000
H	2.000559	-1.978138	0.724300
C	0.000000	0.000000	0.000000
S	0.234628	0.873813	1.507541
C	0.640889	2.392969	0.718873
C	0.234815	0.873434	-1.067872
C	0.592377	2.216811	-0.686410
S	0.174526	0.637422	-2.805516
C	0.622551	2.330840	-3.054530
C	0.803505	3.015647	-1.862551
F	1.144815	4.307994	-1.819088
C	0.740334	2.763108	-4.456084
O	0.548793	2.017428	-5.406510
O	1.082665	4.069544	-4.569225
C	1.215848	4.546407	-5.916207
H	1.494066	5.611729	-5.833064
H	0.261736	4.436296	-6.470168
H	2.000108	3.981294	-6.459293
H	0.878739	3.286099	1.306486
H	0.588198	-9.143623	-0.699838
H	-0.014470	-9.149441	0.992270
H	0.362373	-1.443175	-1.017360
$end

$rem
JOBTYPE		SP
EXCHANGE	HF
CORRELATION	pRIMP2
BASIS		cc-pvtz
METHOD		rimp2
AUX_BASIS	rimp2-cc-pvtz
SOLVENT_METHOD	PCM
PURECART	11111
SYMMETRY	false
MEM_TOTAL	110000
SCF_CONVERGENCE = 6
THRESH=10
GUI = 2
$end

$solvent
dielectric 4.90
$end
--------------------------------------------------------------

             Standard Nuclear Orientation (Angstroms)
    I     Atom           X                Y                Z
 ----------------------------------------------------------------
    1      C       0.2849190000    -8.5177020000     0.1476850000
    2      C      -0.7285740000    -7.6415750000    -0.2125520000
    3      S       1.7453040000    -7.6386340000     0.6617570000
    4      C      -0.3748240000    -6.2647850000    -0.0837610000
    5      H      -1.7156210000    -7.9660810000    -0.5655130000
    6      C       0.9651040000    -6.0727140000     0.4056650000
    7      C       1.5021360000    -4.7870490000     0.5746170000
    8      C      -1.2146870000    -5.1628010000    -0.4137630000
    9      C      -0.6758700000    -3.8748170000    -0.2487480000
   10      C       0.6645130000    -3.6839520000     0.2438880000
   11      O      -2.4642090000    -5.4997720000    -0.8385110000
   12      O       2.7577500000    -4.4590550000     1.0001760000
   13      C       3.4418580000    -5.3290630000     1.8937780000
   14      H       4.3038260000    -4.7556940000     2.2848680000
   15      H       3.8287430000    -6.2380950000     1.3833410000
   16      H       2.7928240000    -5.6372620000     2.7418170000
   17      C      -3.2412220000    -4.5722610000    -1.5861680000
   18      H      -4.1082740000    -5.1397430000    -1.9740330000
   19      H      -2.6689160000    -4.1531310000    -2.4414480000
   20      H      -3.6200410000    -3.7395310000    -0.9546600000
   21      C       1.0156680000    -2.3066540000     0.3693020000
   22      S      -1.4533940000    -2.3065010000    -0.5173670000
   23      C       0.0000000000    -1.4351850000     0.0000000000
   24      H       2.0005590000    -1.9781380000     0.7243000000
   25      C       0.0000000000     0.0000000000     0.0000000000
   26      S       0.2346280000     0.8738130000     1.5075410000
   27      C       0.6408890000     2.3929690000     0.7188730000
   28      C       0.2348150000     0.8734340000    -1.0678720000
   29      C       0.5923770000     2.2168110000    -0.6864100000
   30      S       0.1745260000     0.6374220000    -2.8055160000
   31      C       0.6225510000     2.3308400000    -3.0545300000
   32      C       0.8035050000     3.0156470000    -1.8625510000
   33      F       1.1448150000     4.3079940000    -1.8190880000
   34      C       0.7403340000     2.7631080000    -4.4560840000
   35      O       0.5487930000     2.0174280000    -5.4065100000
   36      O       1.0826650000     4.0695440000    -4.5692250000
   37      C       1.2158480000     4.5464070000    -5.9162070000
   38      H       1.4940660000     5.6117290000    -5.8330640000
   39      H       0.2617360000     4.4362960000    -6.4701680000
   40      H       2.0001080000     3.9812940000    -6.4592930000
   41      H       0.8787390000     3.2860990000     1.3064860000
   42      H       0.5881980000    -9.1436230000    -0.6998380000
   43      H      -0.0144700000    -9.1494410000     0.9922700000
   44      H       0.3623730000    -1.4431750000    -1.0173600000
 ----------------------------------------------------------------

   11   -2755.3438491322      6.96e-07  Convergence criterion met
 Total energy in the final basis set =    -2755.3438491322
        RIMP2         total energy =     -2760.4330997240 a.u.

                    Orbital Energies (a.u.)
 --------------------------------------------------------------

 Alpha MOs
 -- Occupied --
-92.0126 -92.0007 -91.9753 -91.9583 -26.3446 -20.6154 -20.5873 -20.5864
-20.5619 -11.4101 -11.3843 -11.3115 -11.3090 -11.3066 -11.3035 -11.3009
-11.2987 -11.2892 -11.2855 -11.2838 -11.2830 -11.2823 -11.2796 -11.2732
-11.2720 -11.2581 -11.2580 -11.2497 -11.2369  -9.0114  -9.0008  -8.9776
 -8.9609  -6.6921  -6.6915  -6.6911  -6.6819  -6.6811  -6.6800  -6.6587
 -6.6578  -6.6565  -6.6422  -6.6412  -6.6402  -1.6616  -1.4679  -1.4100
 -1.4088  -1.3706  -1.2302  -1.2022  -1.1734  -1.1373  -1.1007  -1.0469
 -1.0452  -1.0238  -1.0031  -0.9968  -0.9633  -0.9579  -0.9485  -0.9416
 -0.8928  -0.8711  -0.8645  -0.8150  -0.7943  -0.7900  -0.7846  -0.7681
 -0.7588  -0.7352  -0.7264  -0.7102  -0.7009  -0.6945  -0.6853  -0.6798
 -0.6744  -0.6652  -0.6553  -0.6484  -0.6347  -0.6305  -0.6201  -0.6150
 -0.6108  -0.5994  -0.5928  -0.5769  -0.5706  -0.5645  -0.5577  -0.5550
 -0.5512  -0.5317  -0.5286  -0.5248  -0.5130  -0.5091  -0.5072  -0.5012
 -0.4857  -0.4809  -0.4763  -0.4745  -0.4722  -0.4673  -0.4599  -0.4458
 -0.4244  -0.3988  -0.3849  -0.3699  -0.3504  -0.3023  -0.2891  -0.2204

          Ground-State Mulliken Net Atomic Charges

     Atom                 Charge (a.u.)
  ----------------------------------------
      1 C                    -0.070316
      2 C                    -0.259339
      3 S                    -0.134910
      4 C                    -0.045292
      5 H                     0.193506
      6 C                    -0.051408
      7 C                     0.221747
      8 C                     0.229918
      9 C                    -0.082788
     10 C                    -0.053694
     11 O                    -0.335627
     12 O                    -0.343585
     13 C                    -0.082595
     14 H                     0.119891
     15 H                     0.092045
     16 H                     0.092684
     17 C                    -0.086498
     18 H                     0.122735
     19 H                     0.092888
     20 H                     0.090087
     21 C                    -0.241309
     22 S                    -0.071154
     23 C                     0.042233
     24 H                     0.208563
     25 C                    -0.068323
     26 S                     0.088591
     27 C                    -0.181910
     28 C                     0.004422
     29 C                    -0.104202
     30 S                     0.005061
     31 C                    -0.157068
     32 C                     0.396726
     33 F                    -0.205522
     34 C                     0.444422
     35 O                    -0.461019
     36 O                    -0.300864
     37 C                    -0.058446
     38 H                     0.121495
     39 H                     0.095221
     40 H                     0.095193
     41 H                     0.217241
     42 H                     0.117527
     43 H                     0.114986
     44 H                     0.188685
  ----------------------------------------
  Sum of atomic charges =     0.000000

                    Cartesian Multipole Moments
 -----------------------------------------------------------------
    Charge (ESU x 10^10)
                -0.0000
    Dipole Moment (Debye)
         X       0.8379      Y       2.8877      Z       2.3635
       Tot       3.8246
    Quadrupole Moments (Debye-Ang)
        XX    -189.7502     XY       7.4462     YY    -175.3848
        XZ       7.1320     YZ      -6.2594     ZZ    -198.9314

 Total job time:  361.71s(wall), 11290.53s(cpu)
        *  Thank you very much for using Q-Chem.  Have a nice day.  *
