 Q-Chem 5.4, Q-Chem, Inc., Pleasanton, CA (2021)
 Q-Chem 5.4.0 for Intel X86 EM64T Linux

User input:
--------------------------------------------------------------
$molecule
0 1
C	0.070009	-8.517702	0.313191
C	-0.305494	-7.641575	-0.694746
S	0.614924	-7.638634	1.762350
C	-0.176768	-6.264785	-0.340973
H	-0.669571	-7.966081	-1.677747
C	0.309600	-6.072714	1.000069
C	0.525372	-4.787049	1.520060
C	-0.463825	-5.162801	-1.196466
C	-0.243888	-3.874817	-0.677639
C	0.240312	-3.683952	0.665815
O	-0.941626	-5.499772	-2.426678
O	1.006468	-4.459055	2.755460
C	0.761666	-5.329063	3.853913
H	1.016135	-4.755694	4.765607
H	1.401368	-6.238095	3.822182
H	-0.305161	-5.637262	3.901833
C	-0.868342	-4.572261	-3.502489
H	-1.128551	-5.139743	-4.416005
H	0.154712	-4.153131	-3.613841
H	-1.595605	-3.739531	-3.386756
C	0.369957	-2.306654	1.015430
S	-0.537898	-2.306501	-1.445922
C	-0.000000	-1.435185	-0.000000
H	0.731088	-1.978138	1.998088
C	0.000000	0.000000	0.000000
S	0.309893	0.850039	1.507541
C	0.847011	2.328006	0.718873
C	0.310046	0.849645	-1.067872
C	0.783331	2.156746	-0.686410
S	0.229416	0.619785	-2.805516
C	0.823328	2.267711	-3.054530
C	1.063278	2.934142	-1.862551
F	1.515925	4.191824	-1.819088
C	0.978337	2.688069	-4.456084
O	0.722535	1.961921	-5.406510
O	1.433229	3.959697	-4.569225
C	1.607467	4.423139	-5.916207
H	1.977475	5.460158	-5.833064
H	0.647388	4.396602	-6.470168
H	2.339490	3.791823	-6.459293
H	1.161798	3.197007	1.306486
H	0.914194	-9.143623	0.000738
H	-0.769424	-9.149441	0.626735
H	1.012272	-1.443175	-0.376353
$end

$rem
JOBTYPE		SP
EXCHANGE	HF
CORRELATION	pRIMP2
BASIS		cc-pvtz
METHOD		rimp2
AUX_BASIS	rimp2-cc-pvtz
SOLVENT_METHOD	PCM
PURECART	11111
SYMMETRY	false
MEM_TOTAL	110000
SCF_CONVERGENCE = 6
THRESH=10
GUI = 2
$end

$solvent
dielectric 4.90
$end
--------------------------------------------------------------

             Standard Nuclear Orientation (Angstroms)
    I     Atom           X                Y                Z
 ----------------------------------------------------------------
    1      C       0.0700090000    -8.5177020000     0.3131910000
    2      C      -0.3054940000    -7.6415750000    -0.6947460000
    3      S       0.6149240000    -7.6386340000     1.7623500000
    4      C      -0.1767680000    -6.2647850000    -0.3409730000
    5      H      -0.6695710000    -7.9660810000    -1.6777470000
    6      C       0.3096000000    -6.0727140000     1.0000690000
    7      C       0.5253720000    -4.7870490000     1.5200600000
    8      C      -0.4638250000    -5.1628010000    -1.1964660000
    9      C      -0.2438880000    -3.8748170000    -0.6776390000
   10      C       0.2403120000    -3.6839520000     0.6658150000
   11      O      -0.9416260000    -5.4997720000    -2.4266780000
   12      O       1.0064680000    -4.4590550000     2.7554600000
   13      C       0.7616660000    -5.3290630000     3.8539130000
   14      H       1.0161350000    -4.7556940000     4.7656070000
   15      H       1.4013680000    -6.2380950000     3.8221820000
   16      H      -0.3051610000    -5.6372620000     3.9018330000
   17      C      -0.8683420000    -4.5722610000    -3.5024890000
   18      H      -1.1285510000    -5.1397430000    -4.4160050000
   19      H       0.1547120000    -4.1531310000    -3.6138410000
   20      H      -1.5956050000    -3.7395310000    -3.3867560000
   21      C       0.3699570000    -2.3066540000     1.0154300000
   22      S      -0.5378980000    -2.3065010000    -1.4459220000
   23      C       0.0000000000    -1.4351850000     0.0000000000
   24      H       0.7310880000    -1.9781380000     1.9980880000
   25      C       0.0000000000     0.0000000000     0.0000000000
   26      S       0.3098930000     0.8500390000     1.5075410000
   27      C       0.8470110000     2.3280060000     0.7188730000
   28      C       0.3100460000     0.8496450000    -1.0678720000
   29      C       0.7833310000     2.1567460000    -0.6864100000
   30      S       0.2294160000     0.6197850000    -2.8055160000
   31      C       0.8233280000     2.2677110000    -3.0545300000
   32      C       1.0632780000     2.9341420000    -1.8625510000
   33      F       1.5159250000     4.1918240000    -1.8190880000
   34      C       0.9783370000     2.6880690000    -4.4560840000
   35      O       0.7225350000     1.9619210000    -5.4065100000
   36      O       1.4332290000     3.9596970000    -4.5692250000
   37      C       1.6074670000     4.4231390000    -5.9162070000
   38      H       1.9774750000     5.4601580000    -5.8330640000
   39      H       0.6473880000     4.3966020000    -6.4701680000
   40      H       2.3394900000     3.7918230000    -6.4592930000
   41      H       1.1617980000     3.1970070000     1.3064860000
   42      H       0.9141940000    -9.1436230000     0.0007380000
   43      H      -0.7694240000    -9.1494410000     0.6267350000
   44      H       1.0122720000    -1.4431750000    -0.3763530000
 ----------------------------------------------------------------

   11   -2755.3373456536      8.05e-07  Convergence criterion met
 Total energy in the final basis set =    -2755.3373456536
        RIMP2         total energy =     -2760.4306095187 a.u.

                    Orbital Energies (a.u.)
 --------------------------------------------------------------

 Alpha MOs
 -- Occupied --
-92.0147 -91.9963 -91.9795 -91.9596 -26.3425 -20.6149 -20.5881 -20.5881
-20.5613 -11.4093 -11.3810 -11.3100 -11.3100 -11.3096 -11.3014 -11.2974
-11.2927 -11.2888 -11.2849 -11.2849 -11.2845 -11.2841 -11.2836 -11.2749
-11.2731 -11.2608 -11.2595 -11.2511 -11.2398  -9.0134  -8.9965  -8.9820
 -8.9622  -6.6942  -6.6936  -6.6930  -6.6775  -6.6768  -6.6756  -6.6631
 -6.6622  -6.6610  -6.6434  -6.6425  -6.6415  -1.6596  -1.4673  -1.4115
 -1.4099  -1.3699  -1.2314  -1.2024  -1.1752  -1.1375  -1.1011  -1.0484
 -1.0446  -1.0240  -1.0043  -0.9980  -0.9640  -0.9569  -0.9495  -0.9421
 -0.8946  -0.8701  -0.8643  -0.8158  -0.7920  -0.7903  -0.7849  -0.7697
 -0.7571  -0.7369  -0.7245  -0.7095  -0.6973  -0.6959  -0.6847  -0.6817
 -0.6738  -0.6652  -0.6564  -0.6493  -0.6374  -0.6316  -0.6213  -0.6159
 -0.6112  -0.5997  -0.5937  -0.5762  -0.5712  -0.5660  -0.5600  -0.5560
 -0.5504  -0.5322  -0.5305  -0.5268  -0.5155  -0.5113  -0.5083  -0.5008
 -0.4851  -0.4800  -0.4770  -0.4735  -0.4712  -0.4656  -0.4605  -0.4475
 -0.4323  -0.3977  -0.3830  -0.3721  -0.3502  -0.3005  -0.2870  -0.2180

          Ground-State Mulliken Net Atomic Charges

     Atom                 Charge (a.u.)
  ----------------------------------------
      1 C                    -0.070619
      2 C                    -0.251512
      3 S                    -0.132943
      4 C                    -0.047066
      5 H                     0.194667
      6 C                    -0.049815
      7 C                     0.219366
      8 C                     0.231729
      9 C                    -0.071818
     10 C                    -0.039651
     11 O                    -0.334372
     12 O                    -0.344118
     13 C                    -0.082676
     14 H                     0.120072
     15 H                     0.092267
     16 H                     0.093060
     17 C                    -0.088466
     18 H                     0.124267
     19 H                     0.093713
     20 H                     0.091012
     21 C                    -0.298765
     22 S                    -0.094416
     23 C                     0.087032
     24 H                     0.200042
     25 C                     0.003914
     26 S                     0.077646
     27 C                    -0.211851
     28 C                    -0.028755
     29 C                    -0.109757
     30 S                    -0.002390
     31 C                    -0.162976
     32 C                     0.403685
     33 F                    -0.207407
     34 C                     0.445197
     35 O                    -0.460536
     36 O                    -0.300760
     37 C                    -0.058601
     38 H                     0.121407
     39 H                     0.095168
     40 H                     0.095011
     41 H                     0.216980
     42 H                     0.118531
     43 H                     0.116189
     44 H                     0.208314
  ----------------------------------------
  Sum of atomic charges =     0.000000

                    Cartesian Multipole Moments
 -----------------------------------------------------------------
    Charge (ESU x 10^10)
                 0.0000
    Dipole Moment (Debye)
         X       1.3327      Y       1.4920      Z       2.5573
       Tot       3.2469
    Quadrupole Moments (Debye-Ang)
        XX    -200.1639     XY       6.2296     YY    -172.3188
        XZ      -2.1637     YZ      -3.1762     ZZ    -187.6320

 Total job time:  354.43s(wall), 11044.88s(cpu)
        *  Thank you very much for using Q-Chem.  Have a nice day.  *
