 Q-Chem 5.4, Q-Chem, Inc., Pleasanton, CA (2021)
 Q-Chem 5.4.0 for Intel X86 EM64T Linux

User input:
--------------------------------------------------------------
$molecule
0 1
C	-0.313191	-8.517702	0.070009
C	0.694746	-7.641575	-0.305494
S	-1.762350	-7.638634	0.614924
C	0.340973	-6.264785	-0.176768
H	1.677747	-7.966081	-0.669571
C	-1.000069	-6.072714	0.309600
C	-1.520060	-4.787049	0.525372
C	1.196466	-5.162801	-0.463825
C	0.677639	-3.874817	-0.243888
C	-0.665815	-3.683952	0.240312
O	2.426678	-5.499772	-0.941626
O	-2.755460	-4.459055	1.006468
C	-3.853913	-5.329063	0.761666
H	-4.765607	-4.755694	1.016135
H	-3.822182	-6.238095	1.401368
H	-3.901833	-5.637262	-0.305161
C	3.502489	-4.572261	-0.868342
H	4.416005	-5.139743	-1.128551
H	3.613841	-4.153131	0.154712
H	3.386756	-3.739531	-1.595605
C	-1.015430	-2.306654	0.369957
S	1.445922	-2.306501	-0.537898
C	-0.000000	-1.435185	-0.000000
H	-1.998088	-1.978138	0.731088
C	0.000000	0.000000	0.000000
S	0.157577	0.890937	1.507541
C	0.429889	2.439720	0.718873
C	0.157797	0.890576	-1.067872
C	0.396915	2.260004	-0.686410
S	0.118307	0.650207	-2.805516
C	0.417036	2.376229	-3.054530
C	0.537616	3.074202	-1.862551
F	0.764992	4.391378	-1.819088
C	0.496696	2.817118	-4.456084
O	0.370874	2.057582	-5.406510
O	0.723861	4.148418	-4.569225
C	0.814976	4.635075	-5.916207
H	0.999286	5.720591	-5.833064
H	-0.125909	4.442226	-6.470168
H	1.645504	4.140465	-6.459293
H	0.588993	3.350182	1.306486
H	-0.000738	-9.143623	0.914194
H	-0.626735	-9.149441	-0.769424
H	0.376353	-1.443175	1.012272
$end

$rem
JOBTYPE		SP
EXCHANGE	HF
CORRELATION	pRIMP2
BASIS		cc-pvtz
METHOD		rimp2
AUX_BASIS	rimp2-cc-pvtz
SOLVENT_METHOD	PCM
PURECART	11111
SYMMETRY	false
MEM_TOTAL	110000
SCF_CONVERGENCE = 6
THRESH=10
GUI = 2
$end

$solvent
dielectric 4.90
$end
--------------------------------------------------------------

             Standard Nuclear Orientation (Angstroms)
    I     Atom           X                Y                Z
 ----------------------------------------------------------------
    1      C      -0.3131910000    -8.5177020000     0.0700090000
    2      C       0.6947460000    -7.6415750000    -0.3054940000
    3      S      -1.7623500000    -7.6386340000     0.6149240000
    4      C       0.3409730000    -6.2647850000    -0.1767680000
    5      H       1.6777470000    -7.9660810000    -0.6695710000
    6      C      -1.0000690000    -6.0727140000     0.3096000000
    7      C      -1.5200600000    -4.7870490000     0.5253720000
    8      C       1.1964660000    -5.1628010000    -0.4638250000
    9      C       0.6776390000    -3.8748170000    -0.2438880000
   10      C      -0.6658150000    -3.6839520000     0.2403120000
   11      O       2.4266780000    -5.4997720000    -0.9416260000
   12      O      -2.7554600000    -4.4590550000     1.0064680000
   13      C      -3.8539130000    -5.3290630000     0.7616660000
   14      H      -4.7656070000    -4.7556940000     1.0161350000
   15      H      -3.8221820000    -6.2380950000     1.4013680000
   16      H      -3.9018330000    -5.6372620000    -0.3051610000
   17      C       3.5024890000    -4.5722610000    -0.8683420000
   18      H       4.4160050000    -5.1397430000    -1.1285510000
   19      H       3.6138410000    -4.1531310000     0.1547120000
   20      H       3.3867560000    -3.7395310000    -1.5956050000
   21      C      -1.0154300000    -2.3066540000     0.3699570000
   22      S       1.4459220000    -2.3065010000    -0.5378980000
   23      C       0.0000000000    -1.4351850000     0.0000000000
   24      H      -1.9980880000    -1.9781380000     0.7310880000
   25      C       0.0000000000     0.0000000000     0.0000000000
   26      S       0.1575770000     0.8909370000     1.5075410000
   27      C       0.4298890000     2.4397200000     0.7188730000
   28      C       0.1577970000     0.8905760000    -1.0678720000
   29      C       0.3969150000     2.2600040000    -0.6864100000
   30      S       0.1183070000     0.6502070000    -2.8055160000
   31      C       0.4170360000     2.3762290000    -3.0545300000
   32      C       0.5376160000     3.0742020000    -1.8625510000
   33      F       0.7649920000     4.3913780000    -1.8190880000
   34      C       0.4966960000     2.8171180000    -4.4560840000
   35      O       0.3708740000     2.0575820000    -5.4065100000
   36      O       0.7238610000     4.1484180000    -4.5692250000
   37      C       0.8149760000     4.6350750000    -5.9162070000
   38      H       0.9992860000     5.7205910000    -5.8330640000
   39      H      -0.1259090000     4.4422260000    -6.4701680000
   40      H       1.6455040000     4.1404650000    -6.4592930000
   41      H       0.5889930000     3.3501820000     1.3064860000
   42      H      -0.0007380000    -9.1436230000     0.9141940000
   43      H      -0.6267350000    -9.1494410000    -0.7694240000
   44      H       0.3763530000    -1.4431750000     1.0122720000
 ----------------------------------------------------------------

   11   -2755.3433568789      7.61e-07  Convergence criterion met
 Total energy in the final basis set =    -2755.3433568789
        RIMP2         total energy =     -2760.4305832903 a.u.

                    Orbital Energies (a.u.)
 --------------------------------------------------------------

 Alpha MOs
 -- Occupied --
-92.0170 -91.9977 -91.9777 -91.9577 -26.3434 -20.6149 -20.5871 -20.5864
-20.5614 -11.4094 -11.3824 -11.3113 -11.3088 -11.3065 -11.3008 -11.2986
-11.2979 -11.2889 -11.2852 -11.2841 -11.2827 -11.2827 -11.2794 -11.2721
-11.2720 -11.2577 -11.2565 -11.2492 -11.2357  -9.0157  -8.9978  -8.9798
 -8.9603  -6.6965  -6.6959  -6.6953  -6.6788  -6.6781  -6.6770  -6.6609
 -6.6600  -6.6587  -6.6415  -6.6406  -6.6396  -1.6605  -1.4673  -1.4100
 -1.4087  -1.3700  -1.2290  -1.2024  -1.1732  -1.1377  -1.0994  -1.0460
 -1.0439  -1.0248  -1.0035  -0.9965  -0.9631  -0.9581  -0.9481  -0.9407
 -0.8930  -0.8684  -0.8664  -0.8147  -0.7964  -0.7892  -0.7843  -0.7677
 -0.7566  -0.7377  -0.7254  -0.7166  -0.6968  -0.6867  -0.6846  -0.6795
 -0.6739  -0.6607  -0.6558  -0.6483  -0.6349  -0.6297  -0.6195  -0.6149
 -0.6108  -0.5992  -0.5917  -0.5767  -0.5713  -0.5634  -0.5594  -0.5560
 -0.5485  -0.5326  -0.5312  -0.5242  -0.5126  -0.5080  -0.5071  -0.5012
 -0.4854  -0.4812  -0.4762  -0.4738  -0.4697  -0.4679  -0.4608  -0.4464
 -0.4243  -0.3988  -0.3850  -0.3696  -0.3514  -0.3007  -0.2892  -0.2200

          Ground-State Mulliken Net Atomic Charges

     Atom                 Charge (a.u.)
  ----------------------------------------
      1 C                    -0.069956
      2 C                    -0.262901
      3 S                    -0.136991
      4 C                    -0.043320
      5 H                     0.193002
      6 C                    -0.052675
      7 C                     0.226260
      8 C                     0.222883
      9 C                    -0.072909
     10 C                    -0.048451
     11 O                    -0.335031
     12 O                    -0.343489
     13 C                    -0.082698
     14 H                     0.119823
     15 H                     0.092028
     16 H                     0.093172
     17 C                    -0.086639
     18 H                     0.123106
     19 H                     0.091738
     20 H                     0.091062
     21 C                    -0.267362
     22 S                    -0.071579
     23 C                     0.083137
     24 H                     0.203723
     25 C                    -0.082883
     26 S                     0.091318
     27 C                    -0.187938
     28 C                    -0.000630
     29 C                    -0.104948
     30 S                     0.012532
     31 C                    -0.156726
     32 C                     0.397446
     33 F                    -0.207131
     34 C                     0.444833
     35 O                    -0.460320
     36 O                    -0.300663
     37 C                    -0.058593
     38 H                     0.121309
     39 H                     0.095198
     40 H                     0.095162
     41 H                     0.218971
     42 H                     0.116719
     43 H                     0.114656
     44 H                     0.185752
  ----------------------------------------
  Sum of atomic charges =     0.000000

                    Cartesian Multipole Moments
 -----------------------------------------------------------------
    Charge (ESU x 10^10)
                -0.0000
    Dipole Moment (Debye)
         X       0.8068      Y       3.1448      Z       3.4384
       Tot       4.7290
    Quadrupole Moments (Debye-Ang)
        XX    -182.9754     XY      -0.8127     YY    -177.0803
        XZ      -1.5949     YZ      -5.9561     ZZ    -206.1378

 Total job time:  373.68s(wall), 11321.71s(cpu)
        *  Thank you very much for using Q-Chem.  Have a nice day.  *
