 Q-Chem 5.4, Q-Chem, Inc., Pleasanton, CA (2021)
 Q-Chem 5.4.0 for Intel X86 EM64T Linux

User input:
--------------------------------------------------------------
$molecule
0 1
C	0.217225	-8.517702	0.236226
C	-0.611939	-7.641575	-0.448921
S	1.413715	-7.638634	1.218777
C	-0.323572	-6.264785	-0.206907
H	-1.418739	-7.966081	-1.118185
C	0.768156	-6.072714	0.711285
C	1.215016	-4.787049	1.053725
C	-0.999917	-5.162801	-0.804258
C	-0.550033	-3.874817	-0.464908
C	0.541024	-3.683952	0.456457
O	-2.028811	-5.499772	-1.630752
O	2.249357	-4.459055	1.883064
C	2.586579	-5.329063	2.956754
H	3.262802	-4.755694	3.619069
H	3.124711	-6.238095	2.609423
H	1.686639	-5.637262	3.531667
C	-2.503251	-4.572261	-2.599073
H	-3.185356	-5.139743	-3.260097
H	-1.672937	-4.153131	-3.207034
H	-3.075213	-3.739531	-2.135214
C	0.828107	-2.306654	0.694410
S	-1.188794	-2.306501	-0.983256
C	-0.000000	-1.435185	-0.000000
H	1.632185	-1.978138	1.364851
C	0.000000	0.000000	0.000000
S	0.581934	0.692785	1.507541
C	1.592155	1.897915	0.718873
C	0.581944	0.692363	-1.067872
C	1.473741	1.758764	-0.686410
S	0.427560	0.503942	-2.805516
C	1.549278	1.849357	-3.054530
C	2.002690	2.393529	-1.862551
F	2.858191	3.420549	-1.819088
C	1.838710	2.191348	-4.456084
O	1.349977	1.596481	-5.406510
O	2.701091	3.230705	-4.569225
C	3.023327	3.606605	-5.916207
H	3.725703	4.454534	-5.833064
H	2.112072	3.910035	-6.470168
H	3.495281	2.762996	-6.459293
H	2.185174	2.606846	1.306486
H	0.792084	-9.143623	-0.456457
H	-0.352973	-9.149441	0.927480
H	0.688477	-1.443175	-0.832067
$end

$rem
JOBTYPE		SP
EXCHANGE	HF
CORRELATION	pRIMP2
BASIS		cc-pvtz
METHOD		rimp2
AUX_BASIS	rimp2-cc-pvtz
SOLVENT_METHOD	PCM
PURECART	11111
SYMMETRY	false
MEM_TOTAL	110000
SCF_CONVERGENCE = 6
THRESH=10
GUI = 2
$end

$solvent
dielectric 4.90
$end
--------------------------------------------------------------

             Standard Nuclear Orientation (Angstroms)
    I     Atom           X                Y                Z
 ----------------------------------------------------------------
    1      C       0.2172250000    -8.5177020000     0.2362260000
    2      C      -0.6119390000    -7.6415750000    -0.4489210000
    3      S       1.4137150000    -7.6386340000     1.2187770000
    4      C      -0.3235720000    -6.2647850000    -0.2069070000
    5      H      -1.4187390000    -7.9660810000    -1.1181850000
    6      C       0.7681560000    -6.0727140000     0.7112850000
    7      C       1.2150160000    -4.7870490000     1.0537250000
    8      C      -0.9999170000    -5.1628010000    -0.8042580000
    9      C      -0.5500330000    -3.8748170000    -0.4649080000
   10      C       0.5410240000    -3.6839520000     0.4564570000
   11      O      -2.0288110000    -5.4997720000    -1.6307520000
   12      O       2.2493570000    -4.4590550000     1.8830640000
   13      C       2.5865790000    -5.3290630000     2.9567540000
   14      H       3.2628020000    -4.7556940000     3.6190690000
   15      H       3.1247110000    -6.2380950000     2.6094230000
   16      H       1.6866390000    -5.6372620000     3.5316670000
   17      C      -2.5032510000    -4.5722610000    -2.5990730000
   18      H      -3.1853560000    -5.1397430000    -3.2600970000
   19      H      -1.6729370000    -4.1531310000    -3.2070340000
   20      H      -3.0752130000    -3.7395310000    -2.1352140000
   21      C       0.8281070000    -2.3066540000     0.6944100000
   22      S      -1.1887940000    -2.3065010000    -0.9832560000
   23      C       0.0000000000    -1.4351850000     0.0000000000
   24      H       1.6321850000    -1.9781380000     1.3648510000
   25      C       0.0000000000     0.0000000000     0.0000000000
   26      S       0.5819340000     0.6927850000     1.5075410000
   27      C       1.5921550000     1.8979150000     0.7188730000
   28      C       0.5819440000     0.6923630000    -1.0678720000
   29      C       1.4737410000     1.7587640000    -0.6864100000
   30      S       0.4275600000     0.5039420000    -2.8055160000
   31      C       1.5492780000     1.8493570000    -3.0545300000
   32      C       2.0026900000     2.3935290000    -1.8625510000
   33      F       2.8581910000     3.4205490000    -1.8190880000
   34      C       1.8387100000     2.1913480000    -4.4560840000
   35      O       1.3499770000     1.5964810000    -5.4065100000
   36      O       2.7010910000     3.2307050000    -4.5692250000
   37      C       3.0233270000     3.6066050000    -5.9162070000
   38      H       3.7257030000     4.4545340000    -5.8330640000
   39      H       2.1120720000     3.9100350000    -6.4701680000
   40      H       3.4952810000     2.7629960000    -6.4592930000
   41      H       2.1851740000     2.6068460000     1.3064860000
   42      H       0.7920840000    -9.1436230000    -0.4564570000
   43      H      -0.3529730000    -9.1494410000     0.9274800000
   44      H       0.6884770000    -1.4431750000    -0.8320670000
 ----------------------------------------------------------------

   11   -2755.3126149229      7.53e-07  Convergence criterion met
 Total energy in the final basis set =    -2755.3126149229
        RIMP2         total energy =     -2760.4109823243 a.u.

                    Orbital Energies (a.u.)
 --------------------------------------------------------------

 Alpha MOs
 -- Occupied --
-92.0156 -92.0053 -91.9732 -91.9571 -26.3456 -20.6158 -20.5870 -20.5850
-20.5623 -11.4107 -11.3857 -11.3174 -11.3085 -11.3057 -11.3044 -11.2991
-11.2936 -11.2896 -11.2873 -11.2828 -11.2828 -11.2815 -11.2773 -11.2728
-11.2713 -11.2568 -11.2555 -11.2484 -11.2336  -9.0144  -9.0051  -8.9758
 -8.9597  -6.6951  -6.6944  -6.6941  -6.6861  -6.6853  -6.6843  -6.6569
 -6.6560  -6.6547  -6.6409  -6.6400  -6.6390  -1.6626  -1.4683  -1.4093
 -1.4079  -1.3710  -1.2360  -1.2009  -1.1725  -1.1396  -1.0996  -1.0485
 -1.0444  -1.0260  -1.0017  -0.9958  -0.9653  -0.9568  -0.9483  -0.9419
 -0.8918  -0.8721  -0.8612  -0.8179  -0.7946  -0.7886  -0.7834  -0.7671
 -0.7589  -0.7348  -0.7273  -0.7111  -0.7014  -0.6935  -0.6858  -0.6800
 -0.6749  -0.6669  -0.6546  -0.6478  -0.6354  -0.6302  -0.6188  -0.6149
 -0.6103  -0.6009  -0.5936  -0.5760  -0.5709  -0.5633  -0.5571  -0.5554
 -0.5516  -0.5322  -0.5272  -0.5233  -0.5127  -0.5105  -0.5069  -0.4995
 -0.4855  -0.4827  -0.4762  -0.4744  -0.4720  -0.4658  -0.4582  -0.4446
 -0.4277  -0.3964  -0.3817  -0.3694  -0.3496  -0.3058  -0.2873  -0.2162

          Ground-State Mulliken Net Atomic Charges

     Atom                 Charge (a.u.)
  ----------------------------------------
      1 C                    -0.069546
      2 C                    -0.269224
      3 S                    -0.138626
      4 C                    -0.041774
      5 H                     0.192424
      6 C                    -0.053038
      7 C                     0.223959
      8 C                     0.222342
      9 C                    -0.067722
     10 C                    -0.053272
     11 O                    -0.335830
     12 O                    -0.344176
     13 C                    -0.082543
     14 H                     0.119444
     15 H                     0.092182
     16 H                     0.092794
     17 C                    -0.087225
     18 H                     0.122520
     19 H                     0.092483
     20 H                     0.090022
     21 C                    -0.269010
     22 S                    -0.086350
     23 C                     0.044246
     24 H                     0.207095
     25 C                    -0.076212
     26 S                     0.092376
     27 C                    -0.169754
     28 C                     0.003438
     29 C                    -0.095214
     30 S                     0.026157
     31 C                    -0.151480
     32 C                     0.393026
     33 F                    -0.204716
     34 C                     0.446696
     35 O                    -0.461022
     36 O                    -0.301136
     37 C                    -0.058326
     38 H                     0.121590
     39 H                     0.095348
     40 H                     0.095289
     41 H                     0.218307
     42 H                     0.116216
     43 H                     0.113727
     44 H                     0.194515
  ----------------------------------------
  Sum of atomic charges =     0.000000

                    Cartesian Multipole Moments
 -----------------------------------------------------------------
    Charge (ESU x 10^10)
                 0.0000
    Dipole Moment (Debye)
         X       2.4538      Y       3.2542      Z       2.3515
       Tot       4.7053
    Quadrupole Moments (Debye-Ang)
        XX    -190.3566     XY      10.8296     YY    -186.0080
        XZ       3.1752     YZ      -3.8121     ZZ    -191.7675

 Total job time:  334.95s(wall), 10292.07s(cpu)
        *  Thank you very much for using Q-Chem.  Have a nice day.  *
