 Q-Chem 5.4, Q-Chem, Inc., Pleasanton, CA (2021)
 Q-Chem 5.4.0 for Intel X86 EM64T Linux

User input:
--------------------------------------------------------------
$molecule
0 1
C	0.306235	-8.517702	0.095966
C	-0.754415	-7.641575	-0.082807
S	1.833702	-7.638634	0.348635
C	-0.383675	-6.264785	-0.017401
H	-1.787757	-7.966081	-0.259008
C	1.020885	-6.072714	0.231913
C	1.579097	-4.787049	0.305044
C	-1.268082	-5.162801	-0.196549
C	-0.708796	-3.874817	-0.127606
C	0.696769	-3.683952	0.124792
O	-2.572378	-5.499772	-0.397867
O	2.889532	-4.459055	0.506103
C	3.718420	-5.329063	1.267335
H	4.635204	-4.755694	1.502804
H	4.010790	-6.238095	0.697471
H	3.226506	-5.637262	2.215194
C	-3.467415	-4.572261	-0.999238
H	-4.388648	-5.139743	-1.230649
H	-3.052323	-4.153131	-1.940905
H	-3.730819	-3.739531	-0.311543
C	1.064366	-2.306654	0.187323
S	-1.521154	-2.306501	-0.257128
C	-0.000000	-1.435185	-0.000000
H	2.095939	-1.978138	0.365903
C	0.000000	0.000000	0.000000
S	0.079327	0.901280	1.507541
C	0.215617	2.467903	0.718873
C	0.079577	0.900940	-1.067872
C	0.198433	2.285998	-0.686410
S	0.061187	0.658044	-2.805516
C	0.208347	2.403534	-3.054530
C	0.267636	3.109360	-1.862551
F	0.379347	4.441341	-1.819088
C	0.249278	2.849688	-4.456084
O	0.190132	2.082076	-5.406510
O	0.359548	4.195721	-4.569225
C	0.407901	4.688467	-5.916207
H	0.496901	5.785916	-5.833064
H	-0.512596	4.414348	-6.470168
H	1.278377	4.268124	-6.459293
H	0.294764	3.388767	1.306486
H	0.457736	-9.143623	-0.791346
H	0.158056	-9.149441	0.979708
H	0.180205	-1.443175	-1.064830
$end

$rem
JOBTYPE		SP
EXCHANGE	HF
CORRELATION	pRIMP2
BASIS		cc-pvtz
METHOD		rimp2
AUX_BASIS	rimp2-cc-pvtz
SOLVENT_METHOD	PCM
PURECART	11111
SYMMETRY	false
MEM_TOTAL	110000
SCF_CONVERGENCE = 6
THRESH=10
GUI = 2
$end

$solvent
dielectric 4.90
$end
--------------------------------------------------------------

             Standard Nuclear Orientation (Angstroms)
    I     Atom           X                Y                Z
 ----------------------------------------------------------------
    1      C       0.3062350000    -8.5177020000     0.0959660000
    2      C      -0.7544150000    -7.6415750000    -0.0828070000
    3      S       1.8337020000    -7.6386340000     0.3486350000
    4      C      -0.3836750000    -6.2647850000    -0.0174010000
    5      H      -1.7877570000    -7.9660810000    -0.2590080000
    6      C       1.0208850000    -6.0727140000     0.2319130000
    7      C       1.5790970000    -4.7870490000     0.3050440000
    8      C      -1.2680820000    -5.1628010000    -0.1965490000
    9      C      -0.7087960000    -3.8748170000    -0.1276060000
   10      C       0.6967690000    -3.6839520000     0.1247920000
   11      O      -2.5723780000    -5.4997720000    -0.3978670000
   12      O       2.8895320000    -4.4590550000     0.5061030000
   13      C       3.7184200000    -5.3290630000     1.2673350000
   14      H       4.6352040000    -4.7556940000     1.5028040000
   15      H       4.0107900000    -6.2380950000     0.6974710000
   16      H       3.2265060000    -5.6372620000     2.2151940000
   17      C      -3.4674150000    -4.5722610000    -0.9992380000
   18      H      -4.3886480000    -5.1397430000    -1.2306490000
   19      H      -3.0523230000    -4.1531310000    -1.9409050000
   20      H      -3.7308190000    -3.7395310000    -0.3115430000
   21      C       1.0643660000    -2.3066540000     0.1873230000
   22      S      -1.5211540000    -2.3065010000    -0.2571280000
   23      C       0.0000000000    -1.4351850000     0.0000000000
   24      H       2.0959390000    -1.9781380000     0.3659030000
   25      C       0.0000000000     0.0000000000     0.0000000000
   26      S       0.0793270000     0.9012800000     1.5075410000
   27      C       0.2156170000     2.4679030000     0.7188730000
   28      C       0.0795770000     0.9009400000    -1.0678720000
   29      C       0.1984330000     2.2859980000    -0.6864100000
   30      S       0.0611870000     0.6580440000    -2.8055160000
   31      C       0.2083470000     2.4035340000    -3.0545300000
   32      C       0.2676360000     3.1093600000    -1.8625510000
   33      F       0.3793470000     4.4413410000    -1.8190880000
   34      C       0.2492780000     2.8496880000    -4.4560840000
   35      O       0.1901320000     2.0820760000    -5.4065100000
   36      O       0.3595480000     4.1957210000    -4.5692250000
   37      C       0.4079010000     4.6884670000    -5.9162070000
   38      H       0.4969010000     5.7859160000    -5.8330640000
   39      H      -0.5125960000     4.4143480000    -6.4701680000
   40      H       1.2783770000     4.2681240000    -6.4592930000
   41      H       0.2947640000     3.3887670000     1.3064860000
   42      H       0.4577360000    -9.1436230000    -0.7913460000
   43      H       0.1580560000    -9.1494410000     0.9797080000
   44      H       0.1802050000    -1.4431750000    -1.0648300000
 ----------------------------------------------------------------

   11   -2755.3481904549      6.83e-07  Convergence criterion met
 Total energy in the final basis set =    -2755.3481904549
        RIMP2         total energy =     -2760.4359325142 a.u.

                    Orbital Energies (a.u.)
 --------------------------------------------------------------

 Alpha MOs
 -- Occupied --
-92.0117 -92.0001 -91.9761 -91.9583 -26.3445 -20.6153 -20.5872 -20.5866
-20.5618 -11.4100 -11.3841 -11.3113 -11.3089 -11.3069 -11.3040 -11.3014
-11.2986 -11.2892 -11.2852 -11.2840 -11.2829 -11.2825 -11.2801 -11.2732
-11.2716 -11.2581 -11.2580 -11.2498 -11.2372  -9.0105  -9.0002  -8.9783
 -8.9609  -6.6913  -6.6907  -6.6902  -6.6813  -6.6805  -6.6794  -6.6594
 -6.6586  -6.6573  -6.6422  -6.6412  -6.6402  -1.6614  -1.4678  -1.4102
 -1.4089  -1.3705  -1.2295  -1.2024  -1.1734  -1.1369  -1.1008  -1.0467
 -1.0453  -1.0235  -1.0034  -0.9969  -0.9629  -0.9583  -0.9485  -0.9414
 -0.8930  -0.8711  -0.8649  -0.8142  -0.7947  -0.7900  -0.7847  -0.7682
 -0.7589  -0.7352  -0.7262  -0.7101  -0.7010  -0.6947  -0.6853  -0.6798
 -0.6744  -0.6650  -0.6554  -0.6485  -0.6346  -0.6305  -0.6201  -0.6149
 -0.6111  -0.5991  -0.5923  -0.5776  -0.5703  -0.5647  -0.5577  -0.5550
 -0.5495  -0.5316  -0.5297  -0.5254  -0.5130  -0.5088  -0.5071  -0.5015
 -0.4857  -0.4806  -0.4765  -0.4745  -0.4719  -0.4673  -0.4603  -0.4460
 -0.4227  -0.4004  -0.3851  -0.3700  -0.3505  -0.3020  -0.2893  -0.2210

          Ground-State Mulliken Net Atomic Charges

     Atom                 Charge (a.u.)
  ----------------------------------------
      1 C                    -0.070381
      2 C                    -0.258399
      3 S                    -0.134974
      4 C                    -0.044627
      5 H                     0.193611
      6 C                    -0.051743
      7 C                     0.225079
      8 C                     0.227950
      9 C                    -0.082502
     10 C                    -0.061773
     11 O                    -0.335372
     12 O                    -0.343399
     13 C                    -0.082612
     14 H                     0.119977
     15 H                     0.092114
     16 H                     0.092577
     17 C                    -0.086483
     18 H                     0.122788
     19 H                     0.092922
     20 H                     0.090155
     21 C                    -0.232424
     22 S                    -0.071029
     23 C                     0.059071
     24 H                     0.206160
     25 C                    -0.085756
     26 S                     0.088100
     27 C                    -0.179169
     28 C                     0.016044
     29 C                    -0.113070
     30 S                     0.000995
     31 C                    -0.159953
     32 C                     0.399985
     33 F                    -0.205813
     34 C                     0.443917
     35 O                    -0.461261
     36 O                    -0.300776
     37 C                    -0.058665
     38 H                     0.121509
     39 H                     0.095272
     40 H                     0.095179
     41 H                     0.217427
     42 H                     0.117606
     43 H                     0.115122
     44 H                     0.186622
  ----------------------------------------
  Sum of atomic charges =     0.000000

                    Cartesian Multipole Moments
 -----------------------------------------------------------------
    Charge (ESU x 10^10)
                -0.0000
    Dipole Moment (Debye)
         X       0.2209      Y       2.8956      Z       2.3679
       Tot       3.7471
    Quadrupole Moments (Debye-Ang)
        XX    -187.6742     XY       5.0595     YY    -174.1069
        XZ       7.2807     YZ      -7.0435     ZZ    -202.0903

 Total job time:  328.91s(wall), 10477.30s(cpu)
        *  Thank you very much for using Q-Chem.  Have a nice day.  *
