 Q-Chem 5.4, Q-Chem, Inc., Pleasanton, CA (2021)
 Q-Chem 5.4.0 for Intel X86 EM64T Linux

User input:
--------------------------------------------------------------
$molecule
0 1
C	-0.270358	-8.517702	0.172904
C	0.548363	-7.641575	-0.524688
S	-1.445750	-7.638634	1.180599
C	0.259951	-6.264785	-0.282727
H	1.347559	-7.966081	-1.203014
C	-0.833868	-6.072714	0.632972
C	-1.248701	-4.787049	1.013580
C	0.965673	-5.162801	-0.845068
C	0.553357	-3.874817	-0.460946
C	-0.543470	-3.683952	0.453541
O	1.958276	-5.499772	-1.714812
O	-2.245053	-4.459055	1.888193
C	-3.360989	-5.329063	2.033848
H	-4.130667	-4.755694	2.584788
H	-3.112380	-6.238095	2.624118
H	-3.770895	-5.637262	1.047748
C	2.994272	-4.572261	-2.013896
H	3.763700	-5.139743	-2.570853
H	3.448815	-4.153131	-1.090625
H	2.636780	-3.739531	-2.657717
C	-0.827659	-2.306654	0.694943
S	1.174750	-2.306501	-0.999993
C	0.000000	-1.435185	0.000000
H	-1.627541	-1.978138	1.370385
C	0.000000	0.000000	0.000000
S	0.000474	0.904764	1.507541
C	-0.000295	2.477305	0.718873
C	0.000752	0.904447	-1.067872
C	-0.001560	2.294593	-0.686410
S	0.003602	0.660872	-2.805516
C	-0.001928	2.412546	-3.054530
C	-0.004381	3.120854	-1.862551
F	-0.009185	4.457503	-1.819088
C	-0.000038	2.860570	-4.456084
O	0.007944	2.090724	-5.406510
O	-0.007501	4.211092	-4.569225
C	-0.002278	4.706177	-5.916207
H	-0.009265	5.807207	-5.833064
H	-0.895381	4.352875	-6.470168
H	0.901521	4.363301	-6.459293
H	-0.001708	3.401562	1.306486
H	0.311979	-9.143623	0.859314
H	-0.852097	-9.149441	-0.508666
H	0.699874	-1.443175	0.822504
$end

$rem
JOBTYPE		SP
EXCHANGE	HF
CORRELATION	pRIMP2
BASIS		cc-pvtz
METHOD		rimp2
AUX_BASIS	rimp2-cc-pvtz
SOLVENT_METHOD	PCM
PURECART	11111
SYMMETRY	false
MEM_TOTAL	110000
SCF_CONVERGENCE = 6
THRESH=10
GUI = 2
$end

$solvent
dielectric 4.90
$end
--------------------------------------------------------------

             Standard Nuclear Orientation (Angstroms)
    I     Atom           X                Y                Z
 ----------------------------------------------------------------
    1      C      -0.2703580000    -8.5177020000     0.1729040000
    2      C       0.5483630000    -7.6415750000    -0.5246880000
    3      S      -1.4457500000    -7.6386340000     1.1805990000
    4      C       0.2599510000    -6.2647850000    -0.2827270000
    5      H       1.3475590000    -7.9660810000    -1.2030140000
    6      C      -0.8338680000    -6.0727140000     0.6329720000
    7      C      -1.2487010000    -4.7870490000     1.0135800000
    8      C       0.9656730000    -5.1628010000    -0.8450680000
    9      C       0.5533570000    -3.8748170000    -0.4609460000
   10      C      -0.5434700000    -3.6839520000     0.4535410000
   11      O       1.9582760000    -5.4997720000    -1.7148120000
   12      O      -2.2450530000    -4.4590550000     1.8881930000
   13      C      -3.3609890000    -5.3290630000     2.0338480000
   14      H      -4.1306670000    -4.7556940000     2.5847880000
   15      H      -3.1123800000    -6.2380950000     2.6241180000
   16      H      -3.7708950000    -5.6372620000     1.0477480000
   17      C       2.9942720000    -4.5722610000    -2.0138960000
   18      H       3.7637000000    -5.1397430000    -2.5708530000
   19      H       3.4488150000    -4.1531310000    -1.0906250000
   20      H       2.6367800000    -3.7395310000    -2.6577170000
   21      C      -0.8276590000    -2.3066540000     0.6949430000
   22      S       1.1747500000    -2.3065010000    -0.9999930000
   23      C       0.0000000000    -1.4351850000     0.0000000000
   24      H      -1.6275410000    -1.9781380000     1.3703850000
   25      C       0.0000000000     0.0000000000     0.0000000000
   26      S       0.0004740000     0.9047640000     1.5075410000
   27      C      -0.0002950000     2.4773050000     0.7188730000
   28      C       0.0007520000     0.9044470000    -1.0678720000
   29      C      -0.0015600000     2.2945930000    -0.6864100000
   30      S       0.0036020000     0.6608720000    -2.8055160000
   31      C      -0.0019280000     2.4125460000    -3.0545300000
   32      C      -0.0043810000     3.1208540000    -1.8625510000
   33      F      -0.0091850000     4.4575030000    -1.8190880000
   34      C      -0.0000380000     2.8605700000    -4.4560840000
   35      O       0.0079440000     2.0907240000    -5.4065100000
   36      O      -0.0075010000     4.2110920000    -4.5692250000
   37      C      -0.0022780000     4.7061770000    -5.9162070000
   38      H      -0.0092650000     5.8072070000    -5.8330640000
   39      H      -0.8953810000     4.3528750000    -6.4701680000
   40      H       0.9015210000     4.3633010000    -6.4592930000
   41      H      -0.0017080000     3.4015620000     1.3064860000
   42      H       0.3119790000    -9.1436230000     0.8593140000
   43      H      -0.8520970000    -9.1494410000    -0.5086660000
   44      H       0.6998740000    -1.4431750000     0.8225040000
 ----------------------------------------------------------------

   11   -2755.3449286298      8.11e-07  Convergence criterion met
 Total energy in the final basis set =    -2755.3449286298
        RIMP2         total energy =     -2760.4325988770 a.u.

                    Orbital Energies (a.u.)
 --------------------------------------------------------------

 Alpha MOs
 -- Occupied --
-92.0160 -91.9959 -91.9794 -91.9584 -26.3427 -20.6147 -20.5876 -20.5871
-20.5612 -11.4092 -11.3815 -11.3094 -11.3079 -11.3077 -11.3051 -11.2975
-11.2959 -11.2887 -11.2847 -11.2843 -11.2836 -11.2831 -11.2813 -11.2732
-11.2730 -11.2584 -11.2584 -11.2499 -11.2372  -9.0148  -8.9961  -8.9815
 -8.9610  -6.6956  -6.6950  -6.6944  -6.6771  -6.6764  -6.6752  -6.6626
 -6.6617  -6.6605  -6.6422  -6.6413  -6.6403  -1.6599  -1.4672  -1.4106
 -1.4092  -1.3698  -1.2289  -1.2028  -1.1740  -1.1373  -1.1002  -1.0469
 -1.0438  -1.0243  -1.0040  -0.9973  -0.9631  -0.9577  -0.9486  -0.9412
 -0.8937  -0.8681  -0.8669  -0.8147  -0.7950  -0.7898  -0.7847  -0.7685
 -0.7565  -0.7377  -0.7248  -0.7155  -0.6970  -0.6877  -0.6845  -0.6801
 -0.6737  -0.6613  -0.6562  -0.6488  -0.6368  -0.6301  -0.6202  -0.6153
 -0.6107  -0.5991  -0.5925  -0.5766  -0.5712  -0.5640  -0.5592  -0.5574
 -0.5504  -0.5324  -0.5311  -0.5250  -0.5130  -0.5092  -0.5076  -0.5016
 -0.4851  -0.4800  -0.4764  -0.4736  -0.4695  -0.4677  -0.4611  -0.4471
 -0.4278  -0.3966  -0.3861  -0.3702  -0.3515  -0.2987  -0.2896  -0.2196

          Ground-State Mulliken Net Atomic Charges

     Atom                 Charge (a.u.)
  ----------------------------------------
      1 C                    -0.070148
      2 C                    -0.258700
      3 S                    -0.135350
      4 C                    -0.046360
      5 H                     0.193669
      6 C                    -0.051169
      7 C                     0.222569
      8 C                     0.227801
      9 C                    -0.074668
     10 C                    -0.040028
     11 O                    -0.334714
     12 O                    -0.343637
     13 C                    -0.082867
     14 H                     0.119919
     15 H                     0.092215
     16 H                     0.093182
     17 C                    -0.087100
     18 H                     0.123595
     19 H                     0.092171
     20 H                     0.091452
     21 C                    -0.287636
     22 S                    -0.079416
     23 C                     0.120306
     24 H                     0.204591
     25 C                    -0.098731
     26 S                     0.086228
     27 C                    -0.190332
     28 C                     0.012325
     29 C                    -0.118187
     30 S                     0.004691
     31 C                    -0.156243
     32 C                     0.400406
     33 F                    -0.207808
     34 C                     0.443607
     35 O                    -0.460138
     36 O                    -0.300525
     37 C                    -0.058736
     38 H                     0.121322
     39 H                     0.095211
     40 H                     0.095071
     41 H                     0.218129
     42 H                     0.117394
     43 H                     0.115209
     44 H                     0.191431
  ----------------------------------------
  Sum of atomic charges =     0.000000

                    Cartesian Multipole Moments
 -----------------------------------------------------------------
    Charge (ESU x 10^10)
                -0.0000
    Dipole Moment (Debye)
         X       0.5255      Y       2.5572      Z       3.3507
       Tot       4.2477
    Quadrupole Moments (Debye-Ang)
        XX    -185.7156     XY      -3.0620     YY    -174.2014
        XZ      -6.2460     YZ      -4.8796     ZZ    -204.0289

 Total job time:  321.40s(wall), 10494.44s(cpu)
        *  Thank you very much for using Q-Chem.  Have a nice day.  *
