 Q-Chem 5.4, Q-Chem, Inc., Pleasanton, CA (2021)
 Q-Chem 5.4.0 for Intel X86 EM64T Linux

User input:
--------------------------------------------------------------
$molecule
0 1
C	0.070009	-8.517702	0.313191
C	-0.305494	-7.641575	-0.694746
S	0.614924	-7.638634	1.762350
C	-0.176768	-6.264785	-0.340973
H	-0.669571	-7.966081	-1.677747
C	0.309600	-6.072714	1.000069
C	0.525372	-4.787049	1.520060
C	-0.463825	-5.162801	-1.196466
C	-0.243888	-3.874817	-0.677639
C	0.240312	-3.683952	0.665815
O	-0.941626	-5.499772	-2.426678
O	1.006468	-4.459055	2.755460
C	0.761666	-5.329063	3.853913
H	1.016135	-4.755694	4.765607
H	1.401368	-6.238095	3.822182
H	-0.305161	-5.637262	3.901833
C	-0.868342	-4.572261	-3.502489
H	-1.128551	-5.139743	-4.416005
H	0.154712	-4.153131	-3.613841
H	-1.595605	-3.739531	-3.386756
C	0.369957	-2.306654	1.015430
S	-0.537898	-2.306501	-1.445922
C	-0.000000	-1.435185	-0.000000
H	0.731088	-1.978138	1.998088
C	0.000000	0.000000	0.000000
S	0.382799	0.819795	1.507541
C	1.046687	2.245325	0.718873
C	0.382918	0.819389	-1.067872
C	0.968323	2.080267	-0.686410
S	0.282561	0.597432	-2.805516
C	1.017839	2.187324	-3.054530
C	1.314960	2.830306	-1.862551
F	1.875498	4.043751	-1.819088
C	1.208895	2.592573	-4.456084
O	0.890778	1.891482	-5.406510
O	1.772886	3.819715	-4.569225
C	1.986852	4.266207	-5.916207
H	2.445834	5.267032	-5.833064
H	1.028114	4.323448	-6.470168
H	2.661066	3.573494	-6.459293
H	1.436015	3.083584	1.306486
H	0.914194	-9.143623	0.000738
H	-0.769424	-9.149441	0.626735
H	1.012272	-1.443175	-0.376353
$end

$rem
JOBTYPE		SP
EXCHANGE	HF
CORRELATION	pRIMP2
BASIS		cc-pvtz
METHOD		rimp2
AUX_BASIS	rimp2-cc-pvtz
SOLVENT_METHOD	PCM
PURECART	11111
SYMMETRY	false
MEM_TOTAL	110000
SCF_CONVERGENCE = 6
THRESH=10
GUI = 2
$end

$solvent
dielectric 4.90
$end
--------------------------------------------------------------

             Standard Nuclear Orientation (Angstroms)
    I     Atom           X                Y                Z
 ----------------------------------------------------------------
    1      C       0.0700090000    -8.5177020000     0.3131910000
    2      C      -0.3054940000    -7.6415750000    -0.6947460000
    3      S       0.6149240000    -7.6386340000     1.7623500000
    4      C      -0.1767680000    -6.2647850000    -0.3409730000
    5      H      -0.6695710000    -7.9660810000    -1.6777470000
    6      C       0.3096000000    -6.0727140000     1.0000690000
    7      C       0.5253720000    -4.7870490000     1.5200600000
    8      C      -0.4638250000    -5.1628010000    -1.1964660000
    9      C      -0.2438880000    -3.8748170000    -0.6776390000
   10      C       0.2403120000    -3.6839520000     0.6658150000
   11      O      -0.9416260000    -5.4997720000    -2.4266780000
   12      O       1.0064680000    -4.4590550000     2.7554600000
   13      C       0.7616660000    -5.3290630000     3.8539130000
   14      H       1.0161350000    -4.7556940000     4.7656070000
   15      H       1.4013680000    -6.2380950000     3.8221820000
   16      H      -0.3051610000    -5.6372620000     3.9018330000
   17      C      -0.8683420000    -4.5722610000    -3.5024890000
   18      H      -1.1285510000    -5.1397430000    -4.4160050000
   19      H       0.1547120000    -4.1531310000    -3.6138410000
   20      H      -1.5956050000    -3.7395310000    -3.3867560000
   21      C       0.3699570000    -2.3066540000     1.0154300000
   22      S      -0.5378980000    -2.3065010000    -1.4459220000
   23      C       0.0000000000    -1.4351850000     0.0000000000
   24      H       0.7310880000    -1.9781380000     1.9980880000
   25      C       0.0000000000     0.0000000000     0.0000000000
   26      S       0.3827990000     0.8197950000     1.5075410000
   27      C       1.0466870000     2.2453250000     0.7188730000
   28      C       0.3829180000     0.8193890000    -1.0678720000
   29      C       0.9683230000     2.0802670000    -0.6864100000
   30      S       0.2825610000     0.5974320000    -2.8055160000
   31      C       1.0178390000     2.1873240000    -3.0545300000
   32      C       1.3149600000     2.8303060000    -1.8625510000
   33      F       1.8754980000     4.0437510000    -1.8190880000
   34      C       1.2088950000     2.5925730000    -4.4560840000
   35      O       0.8907780000     1.8914820000    -5.4065100000
   36      O       1.7728860000     3.8197150000    -4.5692250000
   37      C       1.9868520000     4.2662070000    -5.9162070000
   38      H       2.4458340000     5.2670320000    -5.8330640000
   39      H       1.0281140000     4.3234480000    -6.4701680000
   40      H       2.6610660000     3.5734940000    -6.4592930000
   41      H       1.4360150000     3.0835840000     1.3064860000
   42      H       0.9141940000    -9.1436230000     0.0007380000
   43      H      -0.7694240000    -9.1494410000     0.6267350000
   44      H       1.0122720000    -1.4431750000    -0.3763530000
 ----------------------------------------------------------------

   11   -2755.3326808648      7.98e-07  Convergence criterion met
 Total energy in the final basis set =    -2755.3326808648
        RIMP2         total energy =     -2760.4273925967 a.u.

                    Orbital Energies (a.u.)
 --------------------------------------------------------------

 Alpha MOs
 -- Occupied --
-92.0148 -91.9970 -91.9789 -91.9593 -26.3426 -20.6149 -20.5880 -20.5879
-20.5614 -11.4094 -11.3812 -11.3099 -11.3095 -11.3080 -11.3029 -11.2975
-11.2936 -11.2889 -11.2852 -11.2847 -11.2844 -11.2837 -11.2835 -11.2745
-11.2729 -11.2602 -11.2592 -11.2508 -11.2392  -9.0135  -8.9972  -8.9814
 -8.9619  -6.6943  -6.6937  -6.6932  -6.6782  -6.6774  -6.6763  -6.6626
 -6.6617  -6.6604  -6.6432  -6.6422  -6.6412  -1.6598  -1.4674  -1.4113
 -1.4098  -1.3700  -1.2322  -1.2022  -1.1749  -1.1378  -1.1008  -1.0483
 -1.0448  -1.0243  -1.0040  -0.9978  -0.9642  -0.9567  -0.9494  -0.9421
 -0.8944  -0.8701  -0.8638  -0.8161  -0.7921  -0.7900  -0.7846  -0.7694
 -0.7571  -0.7368  -0.7247  -0.7095  -0.6975  -0.6957  -0.6847  -0.6817
 -0.6739  -0.6655  -0.6562  -0.6492  -0.6372  -0.6315  -0.6211  -0.6158
 -0.6111  -0.5999  -0.5938  -0.5763  -0.5711  -0.5658  -0.5598  -0.5559
 -0.5502  -0.5323  -0.5302  -0.5266  -0.5155  -0.5113  -0.5082  -0.5006
 -0.4851  -0.4799  -0.4772  -0.4734  -0.4712  -0.4655  -0.4602  -0.4473
 -0.4321  -0.3978  -0.3823  -0.3720  -0.3503  -0.3011  -0.2867  -0.2175

          Ground-State Mulliken Net Atomic Charges

     Atom                 Charge (a.u.)
  ----------------------------------------
      1 C                    -0.070513
      2 C                    -0.253334
      3 S                    -0.133588
      4 C                    -0.046529
      5 H                     0.194442
      6 C                    -0.049645
      7 C                     0.219327
      8 C                     0.230651
      9 C                    -0.070169
     10 C                    -0.039378
     11 O                    -0.334495
     12 O                    -0.344143
     13 C                    -0.082682
     14 H                     0.120008
     15 H                     0.092281
     16 H                     0.093045
     17 C                    -0.088360
     18 H                     0.124132
     19 H                     0.093562
     20 H                     0.090904
     21 C                    -0.297778
     22 S                    -0.094444
     23 C                     0.080952
     24 H                     0.200470
     25 C                    -0.001971
     26 S                     0.079033
     27 C                    -0.208912
     28 C                    -0.027369
     29 C                    -0.107440
     30 S                     0.001939
     31 C                    -0.162796
     32 C                     0.403625
     33 F                    -0.207249
     34 C                     0.445590
     35 O                    -0.460596
     36 O                    -0.300821
     37 C                    -0.058638
     38 H                     0.121445
     39 H                     0.095205
     40 H                     0.095030
     41 H                     0.217219
     42 H                     0.118294
     43 H                     0.115941
     44 H                     0.207757
  ----------------------------------------
  Sum of atomic charges =     0.000000

                    Cartesian Multipole Moments
 -----------------------------------------------------------------
    Charge (ESU x 10^10)
                 0.0000
    Dipole Moment (Debye)
         X       1.5616      Y       1.6188      Z       2.5445
       Tot       3.3961
    Quadrupole Moments (Debye-Ang)
        XX    -199.2200     XY       7.1841     YY    -174.1774
        XZ      -2.8099     YZ      -2.9520     ZZ    -187.5278

 Total job time:  326.33s(wall), 10766.42s(cpu)
        *  Thank you very much for using Q-Chem.  Have a nice day.  *
