 Q-Chem 5.4, Q-Chem, Inc., Pleasanton, CA (2021)
 Q-Chem 5.4.0 for Intel X86 EM64T Linux

User input:
--------------------------------------------------------------
$molecule
0 1
C	0.070009	-8.517702	0.313191
C	-0.305494	-7.641575	-0.694746
S	0.614924	-7.638634	1.762350
C	-0.176768	-6.264785	-0.340973
H	-0.669571	-7.966081	-1.677747
C	0.309600	-6.072714	1.000069
C	0.525372	-4.787049	1.520060
C	-0.463825	-5.162801	-1.196466
C	-0.243888	-3.874817	-0.677639
C	0.240312	-3.683952	0.665815
O	-0.941626	-5.499772	-2.426678
O	1.006468	-4.459055	2.755460
C	0.761666	-5.329063	3.853913
H	1.016135	-4.755694	4.765607
H	1.401368	-6.238095	3.822182
H	-0.305161	-5.637262	3.901833
C	-0.868342	-4.572261	-3.502489
H	-1.128551	-5.139743	-4.416005
H	0.154712	-4.153131	-3.613841
H	-1.595605	-3.739531	-3.386756
C	0.369957	-2.306654	1.015430
S	-0.537898	-2.306501	-1.445922
C	-0.000000	-1.435185	-0.000000
H	0.731088	-1.978138	1.998088
C	0.000000	0.000000	0.000000
S	0.157577	0.890937	1.507541
C	0.429889	2.439720	0.718873
C	0.157797	0.890576	-1.067872
C	0.396915	2.260004	-0.686410
S	0.118307	0.650207	-2.805516
C	0.417036	2.376229	-3.054530
C	0.537616	3.074202	-1.862551
F	0.764992	4.391378	-1.819088
C	0.496696	2.817118	-4.456084
O	0.370874	2.057582	-5.406510
O	0.723861	4.148418	-4.569225
C	0.814976	4.635075	-5.916207
H	0.999286	5.720591	-5.833064
H	-0.125909	4.442226	-6.470168
H	1.645504	4.140465	-6.459293
H	0.588993	3.350182	1.306486
H	0.914194	-9.143623	0.000738
H	-0.769424	-9.149441	0.626735
H	1.012272	-1.443175	-0.376353
$end

$rem
JOBTYPE		SP
EXCHANGE	HF
CORRELATION	pRIMP2
BASIS		cc-pvtz
METHOD		rimp2
AUX_BASIS	rimp2-cc-pvtz
SOLVENT_METHOD	PCM
PURECART	11111
SYMMETRY	false
MEM_TOTAL	110000
SCF_CONVERGENCE = 6
THRESH=10
GUI = 2
$end

$solvent
dielectric 4.90
$end
--------------------------------------------------------------

             Standard Nuclear Orientation (Angstroms)
    I     Atom           X                Y                Z
 ----------------------------------------------------------------
    1      C       0.0700090000    -8.5177020000     0.3131910000
    2      C      -0.3054940000    -7.6415750000    -0.6947460000
    3      S       0.6149240000    -7.6386340000     1.7623500000
    4      C      -0.1767680000    -6.2647850000    -0.3409730000
    5      H      -0.6695710000    -7.9660810000    -1.6777470000
    6      C       0.3096000000    -6.0727140000     1.0000690000
    7      C       0.5253720000    -4.7870490000     1.5200600000
    8      C      -0.4638250000    -5.1628010000    -1.1964660000
    9      C      -0.2438880000    -3.8748170000    -0.6776390000
   10      C       0.2403120000    -3.6839520000     0.6658150000
   11      O      -0.9416260000    -5.4997720000    -2.4266780000
   12      O       1.0064680000    -4.4590550000     2.7554600000
   13      C       0.7616660000    -5.3290630000     3.8539130000
   14      H       1.0161350000    -4.7556940000     4.7656070000
   15      H       1.4013680000    -6.2380950000     3.8221820000
   16      H      -0.3051610000    -5.6372620000     3.9018330000
   17      C      -0.8683420000    -4.5722610000    -3.5024890000
   18      H      -1.1285510000    -5.1397430000    -4.4160050000
   19      H       0.1547120000    -4.1531310000    -3.6138410000
   20      H      -1.5956050000    -3.7395310000    -3.3867560000
   21      C       0.3699570000    -2.3066540000     1.0154300000
   22      S      -0.5378980000    -2.3065010000    -1.4459220000
   23      C       0.0000000000    -1.4351850000     0.0000000000
   24      H       0.7310880000    -1.9781380000     1.9980880000
   25      C       0.0000000000     0.0000000000     0.0000000000
   26      S       0.1575770000     0.8909370000     1.5075410000
   27      C       0.4298890000     2.4397200000     0.7188730000
   28      C       0.1577970000     0.8905760000    -1.0678720000
   29      C       0.3969150000     2.2600040000    -0.6864100000
   30      S       0.1183070000     0.6502070000    -2.8055160000
   31      C       0.4170360000     2.3762290000    -3.0545300000
   32      C       0.5376160000     3.0742020000    -1.8625510000
   33      F       0.7649920000     4.3913780000    -1.8190880000
   34      C       0.4966960000     2.8171180000    -4.4560840000
   35      O       0.3708740000     2.0575820000    -5.4065100000
   36      O       0.7238610000     4.1484180000    -4.5692250000
   37      C       0.8149760000     4.6350750000    -5.9162070000
   38      H       0.9992860000     5.7205910000    -5.8330640000
   39      H      -0.1259090000     4.4422260000    -6.4701680000
   40      H       1.6455040000     4.1404650000    -6.4592930000
   41      H       0.5889930000     3.3501820000     1.3064860000
   42      H       0.9141940000    -9.1436230000     0.0007380000
   43      H      -0.7694240000    -9.1494410000     0.6267350000
   44      H       1.0122720000    -1.4431750000    -0.3763530000
 ----------------------------------------------------------------

   11   -2755.3430997388      8.14e-07  Convergence criterion met
 Total energy in the final basis set =    -2755.3430997388
        RIMP2         total energy =     -2760.4345480640 a.u.

                    Orbital Energies (a.u.)
 --------------------------------------------------------------

 Alpha MOs
 -- Occupied --
-92.0145 -91.9955 -91.9804 -91.9599 -26.3422 -20.6147 -20.5885 -20.5882
-20.5612 -11.4092 -11.3807 -11.3113 -11.3106 -11.3102 -11.2997 -11.2972
-11.2918 -11.2888 -11.2852 -11.2847 -11.2845 -11.2845 -11.2837 -11.2753
-11.2734 -11.2615 -11.2598 -11.2514 -11.2405  -9.0131  -8.9957  -8.9828
 -8.9625  -6.6939  -6.6933  -6.6928  -6.6767  -6.6760  -6.6748  -6.6639
 -6.6630  -6.6617  -6.6437  -6.6428  -6.6418  -1.6594  -1.4672  -1.4118
 -1.4101  -1.3698  -1.2303  -1.2028  -1.1755  -1.1370  -1.1015  -1.0487
 -1.0443  -1.0236  -1.0049  -0.9984  -0.9638  -0.9570  -0.9496  -0.9420
 -0.8950  -0.8702  -0.8648  -0.8154  -0.7921  -0.7905  -0.7851  -0.7700
 -0.7571  -0.7371  -0.7243  -0.7094  -0.6968  -0.6962  -0.6846  -0.6818
 -0.6737  -0.6647  -0.6566  -0.6495  -0.6377  -0.6318  -0.6216  -0.6161
 -0.6113  -0.5996  -0.5936  -0.5763  -0.5714  -0.5661  -0.5602  -0.5564
 -0.5504  -0.5320  -0.5311  -0.5269  -0.5156  -0.5114  -0.5083  -0.5010
 -0.4852  -0.4804  -0.4765  -0.4738  -0.4713  -0.4657  -0.4608  -0.4477
 -0.4324  -0.3975  -0.3841  -0.3722  -0.3501  -0.2997  -0.2874  -0.2187

          Ground-State Mulliken Net Atomic Charges

     Atom                 Charge (a.u.)
  ----------------------------------------
      1 C                    -0.070714
      2 C                    -0.249267
      3 S                    -0.132185
      4 C                    -0.047883
      5 H                     0.194928
      6 C                    -0.050349
      7 C                     0.221127
      8 C                     0.232466
      9 C                    -0.073459
     10 C                    -0.042483
     11 O                    -0.334162
     12 O                    -0.344100
     13 C                    -0.082686
     14 H                     0.120147
     15 H                     0.092262
     16 H                     0.093086
     17 C                    -0.088651
     18 H                     0.124463
     19 H                     0.093906
     20 H                     0.091168
     21 C                    -0.296703
     22 S                    -0.096947
     23 C                     0.108730
     24 H                     0.198967
     25 C                    -0.003813
     26 S                     0.076668
     27 C                    -0.213541
     28 C                    -0.025193
     29 C                    -0.116314
     30 S                    -0.008634
     31 C                    -0.162802
     32 C                     0.403711
     33 F                    -0.207743
     34 C                     0.444479
     35 O                    -0.460591
     36 O                    -0.300568
     37 C                    -0.058791
     38 H                     0.121418
     39 H                     0.095170
     40 H                     0.094993
     41 H                     0.216651
     42 H                     0.118801
     43 H                     0.116483
     44 H                     0.207953
  ----------------------------------------
  Sum of atomic charges =     0.000000

                    Cartesian Multipole Moments
 -----------------------------------------------------------------
    Charge (ESU x 10^10)
                 0.0000
    Dipole Moment (Debye)
         X       0.9128      Y       1.3575      Z       2.5731
       Tot       3.0490
    Quadrupole Moments (Debye-Ang)
        XX    -201.4725     XY       3.9738     YY    -169.9168
        XZ      -0.8097     YZ      -3.4729     ZZ    -187.7786

 Total job time:  357.66s(wall), 11088.07s(cpu)
        *  Thank you very much for using Q-Chem.  Have a nice day.  *
