 Q-Chem 5.4, Q-Chem, Inc., Pleasanton, CA (2021)
 Q-Chem 5.4.0 for Intel X86 EM64T Linux

User input:
--------------------------------------------------------------
$molecule
0 1
C	0.313191	-8.517702	-0.070009
C	-0.694746	-7.641575	0.305494
S	1.762350	-7.638634	-0.614924
C	-0.340973	-6.264785	0.176768
H	-1.677747	-7.966081	0.669571
C	1.000069	-6.072714	-0.309600
C	1.520060	-4.787049	-0.525372
C	-1.196466	-5.162801	0.463825
C	-0.677639	-3.874817	0.243888
C	0.665815	-3.683952	-0.240312
O	-2.426678	-5.499772	0.941626
O	2.755460	-4.459055	-1.006468
C	3.853913	-5.329063	-0.761666
H	4.765607	-4.755694	-1.016135
H	3.822182	-6.238095	-1.401368
H	3.901833	-5.637262	0.305161
C	-3.502489	-4.572261	0.868342
H	-4.416005	-5.139743	1.128551
H	-3.613841	-4.153131	-0.154712
H	-3.386756	-3.739531	1.595605
C	1.015430	-2.306654	-0.369957
S	-1.445922	-2.306501	0.537898
C	-0.000000	-1.435185	-0.000000
H	1.998088	-1.978138	-0.731088
C	0.000000	0.000000	0.000000
S	0.079327	0.901280	1.507541
C	0.215617	2.467903	0.718873
C	0.079577	0.900940	-1.067872
C	0.198433	2.285998	-0.686410
S	0.061187	0.658044	-2.805516
C	0.208347	2.403534	-3.054530
C	0.267636	3.109360	-1.862551
F	0.379347	4.441341	-1.819088
C	0.249278	2.849688	-4.456084
O	0.190132	2.082076	-5.406510
O	0.359548	4.195721	-4.569225
C	0.407901	4.688467	-5.916207
H	0.496901	5.785916	-5.833064
H	-0.512596	4.414348	-6.470168
H	1.278377	4.268124	-6.459293
H	0.294764	3.388767	1.306486
H	0.000738	-9.143623	-0.914194
H	0.626735	-9.149441	0.769424
H	-0.376353	-1.443175	-1.012272
$end

$rem
JOBTYPE		SP
EXCHANGE	HF
CORRELATION	pRIMP2
BASIS		cc-pvtz
METHOD		rimp2
AUX_BASIS	rimp2-cc-pvtz
SOLVENT_METHOD	PCM
PURECART	11111
SYMMETRY	false
MEM_TOTAL	110000
SCF_CONVERGENCE = 6
THRESH=10
GUI = 2
$end

$solvent
dielectric 4.90
$end
--------------------------------------------------------------

             Standard Nuclear Orientation (Angstroms)
    I     Atom           X                Y                Z
 ----------------------------------------------------------------
    1      C       0.3131910000    -8.5177020000    -0.0700090000
    2      C      -0.6947460000    -7.6415750000     0.3054940000
    3      S       1.7623500000    -7.6386340000    -0.6149240000
    4      C      -0.3409730000    -6.2647850000     0.1767680000
    5      H      -1.6777470000    -7.9660810000     0.6695710000
    6      C       1.0000690000    -6.0727140000    -0.3096000000
    7      C       1.5200600000    -4.7870490000    -0.5253720000
    8      C      -1.1964660000    -5.1628010000     0.4638250000
    9      C      -0.6776390000    -3.8748170000     0.2438880000
   10      C       0.6658150000    -3.6839520000    -0.2403120000
   11      O      -2.4266780000    -5.4997720000     0.9416260000
   12      O       2.7554600000    -4.4590550000    -1.0064680000
   13      C       3.8539130000    -5.3290630000    -0.7616660000
   14      H       4.7656070000    -4.7556940000    -1.0161350000
   15      H       3.8221820000    -6.2380950000    -1.4013680000
   16      H       3.9018330000    -5.6372620000     0.3051610000
   17      C      -3.5024890000    -4.5722610000     0.8683420000
   18      H      -4.4160050000    -5.1397430000     1.1285510000
   19      H      -3.6138410000    -4.1531310000    -0.1547120000
   20      H      -3.3867560000    -3.7395310000     1.5956050000
   21      C       1.0154300000    -2.3066540000    -0.3699570000
   22      S      -1.4459220000    -2.3065010000     0.5378980000
   23      C       0.0000000000    -1.4351850000     0.0000000000
   24      H       1.9980880000    -1.9781380000    -0.7310880000
   25      C       0.0000000000     0.0000000000     0.0000000000
   26      S       0.0793270000     0.9012800000     1.5075410000
   27      C       0.2156170000     2.4679030000     0.7188730000
   28      C       0.0795770000     0.9009400000    -1.0678720000
   29      C       0.1984330000     2.2859980000    -0.6864100000
   30      S       0.0611870000     0.6580440000    -2.8055160000
   31      C       0.2083470000     2.4035340000    -3.0545300000
   32      C       0.2676360000     3.1093600000    -1.8625510000
   33      F       0.3793470000     4.4413410000    -1.8190880000
   34      C       0.2492780000     2.8496880000    -4.4560840000
   35      O       0.1901320000     2.0820760000    -5.4065100000
   36      O       0.3595480000     4.1957210000    -4.5692250000
   37      C       0.4079010000     4.6884670000    -5.9162070000
   38      H       0.4969010000     5.7859160000    -5.8330640000
   39      H      -0.5125960000     4.4143480000    -6.4701680000
   40      H       1.2783770000     4.2681240000    -6.4592930000
   41      H       0.2947640000     3.3887670000     1.3064860000
   42      H       0.0007380000    -9.1436230000    -0.9141940000
   43      H       0.6267350000    -9.1494410000     0.7694240000
   44      H      -0.3763530000    -1.4431750000    -1.0122720000
 ----------------------------------------------------------------

   11   -2755.3477812342      6.91e-07  Convergence criterion met
 Total energy in the final basis set =    -2755.3477812342
        RIMP2         total energy =     -2760.4356089262 a.u.

                    Orbital Energies (a.u.)
 --------------------------------------------------------------

 Alpha MOs
 -- Occupied --
-92.0119 -92.0000 -91.9781 -91.9581 -26.3444 -20.6154 -20.5871 -20.5871
-20.5618 -11.4101 -11.3840 -11.3104 -11.3090 -11.3075 -11.3036 -11.3023
-11.2987 -11.2892 -11.2853 -11.2845 -11.2830 -11.2827 -11.2810 -11.2729
-11.2721 -11.2582 -11.2577 -11.2497 -11.2370  -9.0107  -9.0001  -8.9803
 -8.9608  -6.6915  -6.6909  -6.6904  -6.6812  -6.6804  -6.6793  -6.6614
 -6.6605  -6.6592  -6.6420  -6.6411  -6.6400  -1.6614  -1.4678  -1.4105
 -1.4089  -1.3705  -1.2297  -1.2027  -1.1735  -1.1370  -1.1009  -1.0465
 -1.0459  -1.0235  -1.0037  -0.9973  -0.9624  -0.9591  -0.9486  -0.9413
 -0.8935  -0.8712  -0.8648  -0.8122  -0.7972  -0.7901  -0.7846  -0.7680
 -0.7587  -0.7357  -0.7262  -0.7100  -0.7010  -0.6952  -0.6853  -0.6799
 -0.6744  -0.6650  -0.6557  -0.6485  -0.6354  -0.6306  -0.6200  -0.6149
 -0.6118  -0.5990  -0.5924  -0.5778  -0.5707  -0.5655  -0.5580  -0.5534
 -0.5479  -0.5318  -0.5314  -0.5263  -0.5130  -0.5085  -0.5072  -0.5019
 -0.4853  -0.4814  -0.4762  -0.4746  -0.4700  -0.4684  -0.4611  -0.4465
 -0.4236  -0.4002  -0.3854  -0.3701  -0.3506  -0.3019  -0.2894  -0.2208

          Ground-State Mulliken Net Atomic Charges

     Atom                 Charge (a.u.)
  ----------------------------------------
      1 C                    -0.070307
      2 C                    -0.259367
      3 S                    -0.135226
      4 C                    -0.044610
      5 H                     0.193369
      6 C                    -0.052582
      7 C                     0.224806
      8 C                     0.228338
      9 C                    -0.081255
     10 C                    -0.059456
     11 O                    -0.335115
     12 O                    -0.343062
     13 C                    -0.082749
     14 H                     0.120146
     15 H                     0.092196
     16 H                     0.092573
     17 C                    -0.086480
     18 H                     0.123142
     19 H                     0.092787
     20 H                     0.090184
     21 C                    -0.239427
     22 S                    -0.070385
     23 C                     0.063048
     24 H                     0.207903
     25 C                    -0.087076
     26 S                     0.089020
     27 C                    -0.181123
     28 C                     0.013447
     29 C                    -0.112264
     30 S                     0.002581
     31 C                    -0.158278
     32 C                     0.398744
     33 F                    -0.205881
     34 C                     0.444969
     35 O                    -0.461046
     36 O                    -0.300706
     37 C                    -0.058641
     38 H                     0.121520
     39 H                     0.095288
     40 H                     0.095172
     41 H                     0.217507
     42 H                     0.117402
     43 H                     0.114980
     44 H                     0.185908
  ----------------------------------------
  Sum of atomic charges =     0.000000

                    Cartesian Multipole Moments
 -----------------------------------------------------------------
    Charge (ESU x 10^10)
                -0.0000
    Dipole Moment (Debye)
         X      -0.0677      Y       2.8593      Z       2.4510
       Tot       3.7667
    Quadrupole Moments (Debye-Ang)
        XX    -183.2084     XY       5.0194     YY    -174.5027
        XZ      -0.9433     YZ      -9.0113     ZZ    -206.4683

 Total job time:  320.03s(wall), 10460.97s(cpu)
        *  Thank you very much for using Q-Chem.  Have a nice day.  *
