 Q-Chem 5.4, Q-Chem, Inc., Pleasanton, CA (2021)
 Q-Chem 5.4.0 for Intel X86 EM64T Linux

User input:
--------------------------------------------------------------
$molecule
0 1
C	-0.318247	-8.517702	-0.041330
C	0.757333	-7.641575	-0.049453
S	-1.866383	-7.638634	-0.024919
C	0.380867	-6.264785	-0.049488
H	1.805573	-7.966081	-0.055368
C	-1.045647	-6.072714	-0.051115
C	-1.608077	-4.787049	-0.026203
C	1.282948	-5.162801	-0.026637
C	0.720187	-3.874817	0.002586
C	-0.707853	-3.683952	-0.001903
O	2.602386	-5.499772	-0.054867
O	-2.933517	-4.459055	0.003348
C	-3.881999	-5.329063	-0.602384
H	-4.825744	-4.755694	-0.675079
H	-4.070972	-6.238095	0.009592
H	-3.562152	-5.637262	-1.621263
C	3.588253	-4.572261	0.381947
H	4.535674	-5.139743	0.449872
H	3.342986	-4.153131	1.381388
H	3.728239	-3.739531	-0.341040
C	-1.080725	-2.306654	0.000348
S	1.542694	-2.306501	-0.010924
C	-0.000000	-1.435185	-0.000000
H	-2.127635	-1.978138	0.003612
C	0.000000	0.000000	0.000000
S	0.581934	0.692785	1.507541
C	1.592155	1.897915	0.718873
C	0.581944	0.692363	-1.067872
C	1.473741	1.758764	-0.686410
S	0.427560	0.503942	-2.805516
C	1.549278	1.849357	-3.054530
C	2.002690	2.393529	-1.862551
F	2.858191	3.420549	-1.819088
C	1.838710	2.191348	-4.456084
O	1.349977	1.596481	-5.406510
O	2.701091	3.230705	-4.569225
C	3.023327	3.606605	-5.916207
H	3.725703	4.454534	-5.833064
H	2.112072	3.910035	-6.470168
H	3.495281	2.762996	-6.459293
H	2.185174	2.606846	1.306486
H	-0.313367	-9.143623	0.858809
H	-0.325780	-9.149441	-0.937378
H	0.007439	-1.443175	1.079945
$end

$rem
JOBTYPE		SP
EXCHANGE	HF
CORRELATION	pRIMP2
BASIS		cc-pvtz
METHOD		rimp2
AUX_BASIS	rimp2-cc-pvtz
SOLVENT_METHOD	PCM
PURECART	11111
SYMMETRY	false
MEM_TOTAL	110000
SCF_CONVERGENCE = 6
THRESH=10
GUI = 2
$end

$solvent
dielectric 4.90
$end
--------------------------------------------------------------

             Standard Nuclear Orientation (Angstroms)
    I     Atom           X                Y                Z
 ----------------------------------------------------------------
    1      C      -0.3182470000    -8.5177020000    -0.0413300000
    2      C       0.7573330000    -7.6415750000    -0.0494530000
    3      S      -1.8663830000    -7.6386340000    -0.0249190000
    4      C       0.3808670000    -6.2647850000    -0.0494880000
    5      H       1.8055730000    -7.9660810000    -0.0553680000
    6      C      -1.0456470000    -6.0727140000    -0.0511150000
    7      C      -1.6080770000    -4.7870490000    -0.0262030000
    8      C       1.2829480000    -5.1628010000    -0.0266370000
    9      C       0.7201870000    -3.8748170000     0.0025860000
   10      C      -0.7078530000    -3.6839520000    -0.0019030000
   11      O       2.6023860000    -5.4997720000    -0.0548670000
   12      O      -2.9335170000    -4.4590550000     0.0033480000
   13      C      -3.8819990000    -5.3290630000    -0.6023840000
   14      H      -4.8257440000    -4.7556940000    -0.6750790000
   15      H      -4.0709720000    -6.2380950000     0.0095920000
   16      H      -3.5621520000    -5.6372620000    -1.6212630000
   17      C       3.5882530000    -4.5722610000     0.3819470000
   18      H       4.5356740000    -5.1397430000     0.4498720000
   19      H       3.3429860000    -4.1531310000     1.3813880000
   20      H       3.7282390000    -3.7395310000    -0.3410400000
   21      C      -1.0807250000    -2.3066540000     0.0003480000
   22      S       1.5426940000    -2.3065010000    -0.0109240000
   23      C       0.0000000000    -1.4351850000     0.0000000000
   24      H      -2.1276350000    -1.9781380000     0.0036120000
   25      C       0.0000000000     0.0000000000     0.0000000000
   26      S       0.5819340000     0.6927850000     1.5075410000
   27      C       1.5921550000     1.8979150000     0.7188730000
   28      C       0.5819440000     0.6923630000    -1.0678720000
   29      C       1.4737410000     1.7587640000    -0.6864100000
   30      S       0.4275600000     0.5039420000    -2.8055160000
   31      C       1.5492780000     1.8493570000    -3.0545300000
   32      C       2.0026900000     2.3935290000    -1.8625510000
   33      F       2.8581910000     3.4205490000    -1.8190880000
   34      C       1.8387100000     2.1913480000    -4.4560840000
   35      O       1.3499770000     1.5964810000    -5.4065100000
   36      O       2.7010910000     3.2307050000    -4.5692250000
   37      C       3.0233270000     3.6066050000    -5.9162070000
   38      H       3.7257030000     4.4545340000    -5.8330640000
   39      H       2.1120720000     3.9100350000    -6.4701680000
   40      H       3.4952810000     2.7629960000    -6.4592930000
   41      H       2.1851740000     2.6068460000     1.3064860000
   42      H      -0.3133670000    -9.1436230000     0.8588090000
   43      H      -0.3257800000    -9.1494410000    -0.9373780000
   44      H       0.0074390000    -1.4431750000     1.0799450000
 ----------------------------------------------------------------

   11   -2755.3157210659      7.19e-07  Convergence criterion met
 Total energy in the final basis set =    -2755.3157210659
        RIMP2         total energy =     -2760.4092760073 a.u.

                    Orbital Energies (a.u.)
 --------------------------------------------------------------

 Alpha MOs
 -- Occupied --
-92.0156 -92.0037 -91.9739 -91.9559 -26.3451 -20.6153 -20.5862 -20.5850
-20.5618 -11.4101 -11.3851 -11.3237 -11.3083 -11.3077 -11.3041 -11.2984
-11.2892 -11.2867 -11.2847 -11.2835 -11.2820 -11.2811 -11.2751 -11.2697
-11.2694 -11.2563 -11.2523 -11.2476 -11.2324  -9.0148  -9.0036  -8.9764
 -8.9586  -6.6956  -6.6948  -6.6944  -6.6845  -6.6838  -6.6827  -6.6574
 -6.6566  -6.6553  -6.6398  -6.6389  -6.6379  -1.6622  -1.4678  -1.4087
 -1.4076  -1.3705  -1.2337  -1.2008  -1.1717  -1.1396  -1.0976  -1.0470
 -1.0432  -1.0268  -1.0020  -0.9943  -0.9647  -0.9584  -0.9472  -0.9401
 -0.8917  -0.8707  -0.8623  -0.8171  -0.7971  -0.7879  -0.7830  -0.7661
 -0.7572  -0.7377  -0.7269  -0.7177  -0.6961  -0.6874  -0.6851  -0.6784
 -0.6744  -0.6607  -0.6549  -0.6474  -0.6334  -0.6296  -0.6180  -0.6141
 -0.6111  -0.6007  -0.5909  -0.5742  -0.5725  -0.5623  -0.5583  -0.5540
 -0.5407  -0.5327  -0.5314  -0.5241  -0.5118  -0.5087  -0.5061  -0.4995
 -0.4857  -0.4828  -0.4755  -0.4746  -0.4702  -0.4668  -0.4594  -0.4447
 -0.4205  -0.3990  -0.3840  -0.3682  -0.3498  -0.3066  -0.2875  -0.2180

          Ground-State Mulliken Net Atomic Charges

     Atom                 Charge (a.u.)
  ----------------------------------------
      1 C                    -0.069460
      2 C                    -0.272087
      3 S                    -0.140727
      4 C                    -0.041484
      5 H                     0.191790
      6 C                    -0.055806
      7 C                     0.224286
      8 C                     0.221294
      9 C                    -0.072022
     10 C                    -0.053010
     11 O                    -0.335332
     12 O                    -0.343080
     13 C                    -0.082514
     14 H                     0.119568
     15 H                     0.091691
     16 H                     0.092991
     17 C                    -0.086698
     18 H                     0.122852
     19 H                     0.090900
     20 H                     0.090108
     21 C                    -0.257940
     22 S                    -0.078410
     23 C                     0.015791
     24 H                     0.205693
     25 C                    -0.072221
     26 S                     0.097296
     27 C                    -0.157600
     28 C                    -0.006311
     29 C                    -0.083042
     30 S                     0.035018
     31 C                    -0.153795
     32 C                     0.394617
     33 F                    -0.205262
     34 C                     0.446759
     35 O                    -0.461204
     36 O                    -0.301155
     37 C                    -0.058318
     38 H                     0.121390
     39 H                     0.095230
     40 H                     0.095339
     41 H                     0.220320
     42 H                     0.115340
     43 H                     0.113268
     44 H                     0.185938
  ----------------------------------------
  Sum of atomic charges =     0.000000

                    Cartesian Multipole Moments
 -----------------------------------------------------------------
    Charge (ESU x 10^10)
                 0.0000
    Dipole Moment (Debye)
         X       2.3441      Y       3.8355      Z       3.2731
       Tot       5.5605
    Quadrupole Moments (Debye-Ang)
        XX    -178.6643     XY       4.9974     YY    -188.1797
        XZ       1.0027     YZ      -5.5290     ZZ    -203.1557

 Total job time:  338.25s(wall), 10909.36s(cpu)
        *  Thank you very much for using Q-Chem.  Have a nice day.  *
