 Q-Chem 5.4, Q-Chem, Inc., Pleasanton, CA (2021)
 Q-Chem 5.4.0 for Intel X86 EM64T Linux

User input:
--------------------------------------------------------------
$molecule
0 1
C	-0.123330	-8.517702	-0.296276
C	0.421494	-7.641575	0.631143
S	-0.911611	-7.638634	-1.628795
C	0.233291	-6.264785	0.305097
H	0.950737	-7.966081	1.535988
C	-0.478557	-6.072714	-0.931114
C	-0.781346	-4.787049	-1.405737
C	0.664542	-5.162801	1.097747
C	0.357854	-3.874817	0.624993
C	-0.352278	-3.683952	-0.613970
O	1.348709	-5.499772	2.226300
O	-1.469658	-4.459055	-2.538827
C	-1.419319	-5.329063	-3.663102
H	-1.828237	-4.755694	-4.516756
H	-2.043793	-6.238095	-3.520769
H	-0.377021	-5.637262	-3.895546
C	1.463351	-4.572261	3.298492
H	1.878237	-5.139743	4.152945
H	0.475176	-4.153131	3.585804
H	2.159469	-3.739531	3.058230
C	-0.540664	-2.306654	-0.935761
S	0.780808	-2.306501	1.330550
C	-0.000000	-1.435185	-0.000000
H	-1.066946	-1.978138	-1.840780
C	0.000000	0.000000	0.000000
S	0.581934	0.692785	1.507541
C	1.592155	1.897915	0.718873
C	0.581944	0.692363	-1.067872
C	1.473741	1.758764	-0.686410
S	0.427560	0.503942	-2.805516
C	1.549278	1.849357	-3.054530
C	2.002690	2.393529	-1.862551
F	2.858191	3.420549	-1.819088
C	1.838710	2.191348	-4.456084
O	1.349977	1.596481	-5.406510
O	2.701091	3.230705	-4.569225
C	3.023327	3.606605	-5.916207
H	3.725703	4.454534	-5.833064
H	2.112072	3.910035	-6.470168
H	3.495281	2.762996	-6.459293
H	2.185174	2.606846	1.306486
H	-0.900433	-9.143623	0.158021
H	0.648903	-9.149441	-0.750822
H	-0.931540	-1.443175	0.546415
$end

$rem
JOBTYPE		SP
EXCHANGE	HF
CORRELATION	pRIMP2
BASIS		cc-pvtz
METHOD		rimp2
AUX_BASIS	rimp2-cc-pvtz
SOLVENT_METHOD	PCM
PURECART	11111
SYMMETRY	false
MEM_TOTAL	110000
SCF_CONVERGENCE = 6
THRESH=10
GUI = 2
$end

$solvent
dielectric 4.90
$end
--------------------------------------------------------------

             Standard Nuclear Orientation (Angstroms)
    I     Atom           X                Y                Z
 ----------------------------------------------------------------
    1      C      -0.1233300000    -8.5177020000    -0.2962760000
    2      C       0.4214940000    -7.6415750000     0.6311430000
    3      S      -0.9116110000    -7.6386340000    -1.6287950000
    4      C       0.2332910000    -6.2647850000     0.3050970000
    5      H       0.9507370000    -7.9660810000     1.5359880000
    6      C      -0.4785570000    -6.0727140000    -0.9311140000
    7      C      -0.7813460000    -4.7870490000    -1.4057370000
    8      C       0.6645420000    -5.1628010000     1.0977470000
    9      C       0.3578540000    -3.8748170000     0.6249930000
   10      C      -0.3522780000    -3.6839520000    -0.6139700000
   11      O       1.3487090000    -5.4997720000     2.2263000000
   12      O      -1.4696580000    -4.4590550000    -2.5388270000
   13      C      -1.4193190000    -5.3290630000    -3.6631020000
   14      H      -1.8282370000    -4.7556940000    -4.5167560000
   15      H      -2.0437930000    -6.2380950000    -3.5207690000
   16      H      -0.3770210000    -5.6372620000    -3.8955460000
   17      C       1.4633510000    -4.5722610000     3.2984920000
   18      H       1.8782370000    -5.1397430000     4.1529450000
   19      H       0.4751760000    -4.1531310000     3.5858040000
   20      H       2.1594690000    -3.7395310000     3.0582300000
   21      C      -0.5406640000    -2.3066540000    -0.9357610000
   22      S       0.7808080000    -2.3065010000     1.3305500000
   23      C       0.0000000000    -1.4351850000     0.0000000000
   24      H      -1.0669460000    -1.9781380000    -1.8407800000
   25      C       0.0000000000     0.0000000000     0.0000000000
   26      S       0.5819340000     0.6927850000     1.5075410000
   27      C       1.5921550000     1.8979150000     0.7188730000
   28      C       0.5819440000     0.6923630000    -1.0678720000
   29      C       1.4737410000     1.7587640000    -0.6864100000
   30      S       0.4275600000     0.5039420000    -2.8055160000
   31      C       1.5492780000     1.8493570000    -3.0545300000
   32      C       2.0026900000     2.3935290000    -1.8625510000
   33      F       2.8581910000     3.4205490000    -1.8190880000
   34      C       1.8387100000     2.1913480000    -4.4560840000
   35      O       1.3499770000     1.5964810000    -5.4065100000
   36      O       2.7010910000     3.2307050000    -4.5692250000
   37      C       3.0233270000     3.6066050000    -5.9162070000
   38      H       3.7257030000     4.4545340000    -5.8330640000
   39      H       2.1120720000     3.9100350000    -6.4701680000
   40      H       3.4952810000     2.7629960000    -6.4592930000
   41      H       2.1851740000     2.6068460000     1.3064860000
   42      H      -0.9004330000    -9.1436230000     0.1580210000
   43      H       0.6489030000    -9.1494410000    -0.7508220000
   44      H      -0.9315400000    -1.4431750000     0.5464150000
 ----------------------------------------------------------------

   11   -2755.3073335261      8.59e-07  Convergence criterion met
 Total energy in the final basis set =    -2755.3073335261
        RIMP2         total energy =     -2760.4057026853 a.u.

                    Orbital Energies (a.u.)
 --------------------------------------------------------------

 Alpha MOs
 -- Occupied --
-92.0151 -92.0030 -91.9782 -91.9561 -26.3448 -20.6156 -20.5862 -20.5855
-20.5622 -11.4105 -11.3846 -11.3188 -11.3081 -11.3050 -11.3044 -11.2991
-11.2901 -11.2894 -11.2867 -11.2842 -11.2817 -11.2814 -11.2758 -11.2740
-11.2699 -11.2564 -11.2542 -11.2475 -11.2318  -9.0144  -9.0029  -8.9805
 -8.9587  -6.6951  -6.6944  -6.6940  -6.6839  -6.6832  -6.6821  -6.6615
 -6.6606  -6.6593  -6.6400  -6.6390  -6.6380  -1.6618  -1.4682  -1.4091
 -1.4078  -1.3709  -1.2333  -1.2017  -1.1719  -1.1394  -1.0983  -1.0465
 -1.0449  -1.0262  -1.0029  -0.9958  -0.9644  -0.9594  -0.9472  -0.9402
 -0.8931  -0.8704  -0.8635  -0.8134  -0.7996  -0.7896  -0.7824  -0.7656
 -0.7576  -0.7371  -0.7266  -0.7157  -0.6972  -0.6885  -0.6854  -0.6801
 -0.6747  -0.6611  -0.6556  -0.6477  -0.6370  -0.6304  -0.6179  -0.6137
 -0.6116  -0.6008  -0.5915  -0.5773  -0.5697  -0.5645  -0.5570  -0.5555
 -0.5413  -0.5342  -0.5302  -0.5280  -0.5139  -0.5089  -0.5070  -0.4997
 -0.4859  -0.4825  -0.4758  -0.4748  -0.4705  -0.4685  -0.4554  -0.4444
 -0.4294  -0.3927  -0.3846  -0.3684  -0.3510  -0.3035  -0.2872  -0.2140

          Ground-State Mulliken Net Atomic Charges

     Atom                 Charge (a.u.)
  ----------------------------------------
      1 C                    -0.069312
      2 C                    -0.275121
      3 S                    -0.139960
      4 C                    -0.041456
      5 H                     0.191369
      6 C                    -0.054903
      7 C                     0.223752
      8 C                     0.216855
      9 C                    -0.076260
     10 C                    -0.055167
     11 O                    -0.335219
     12 O                    -0.344182
     13 C                    -0.082568
     14 H                     0.120310
     15 H                     0.091930
     16 H                     0.092901
     17 C                    -0.087920
     18 H                     0.123541
     19 H                     0.091472
     20 H                     0.089196
     21 C                    -0.263681
     22 S                    -0.084707
     23 C                     0.056383
     24 H                     0.207492
     25 C                    -0.113531
     26 S                     0.080247
     27 C                    -0.158249
     28 C                     0.060512
     29 C                    -0.115898
     30 S                     0.020749
     31 C                    -0.157753
     32 C                     0.402294
     33 F                    -0.205621
     34 C                     0.446501
     35 O                    -0.460986
     36 O                    -0.301031
     37 C                    -0.058398
     38 H                     0.121600
     39 H                     0.095221
     40 H                     0.095372
     41 H                     0.220145
     42 H                     0.115275
     43 H                     0.113003
     44 H                     0.205802
  ----------------------------------------
  Sum of atomic charges =     0.000000

                    Cartesian Multipole Moments
 -----------------------------------------------------------------
    Charge (ESU x 10^10)
                 0.0000
    Dipole Moment (Debye)
         X       1.6857      Y       3.6038      Z       3.1764
       Tot       5.0910
    Quadrupole Moments (Debye-Ang)
        XX    -194.2557     XY       6.6234     YY    -188.6922
        XZ      -1.3235     YZ      -8.8009     ZZ    -187.5794

 Total job time:  335.98s(wall), 10457.82s(cpu)
        *  Thank you very much for using Q-Chem.  Have a nice day.  *
