 Q-Chem 5.4, Q-Chem, Inc., Pleasanton, CA (2021)
 Q-Chem 5.4.0 for Intel X86 EM64T Linux

User input:
--------------------------------------------------------------
$molecule
0 1
C	0.095966	-8.517702	-0.306235
C	-0.082807	-7.641575	0.754415
S	0.348635	-7.638634	-1.833702
C	-0.017401	-6.264785	0.383675
H	-0.259008	-7.966081	1.787757
C	0.231913	-6.072714	-1.020885
C	0.305044	-4.787049	-1.579097
C	-0.196549	-5.162801	1.268082
C	-0.127606	-3.874817	0.708796
C	0.124792	-3.683952	-0.696769
O	-0.397867	-5.499772	2.572378
O	0.506103	-4.459055	-2.889532
C	1.267335	-5.329063	-3.718420
H	1.502804	-4.755694	-4.635204
H	0.697471	-6.238095	-4.010790
H	2.215194	-5.637262	-3.226506
C	-0.999238	-4.572261	3.467415
H	-1.230649	-5.139743	4.388648
H	-1.940905	-4.153131	3.052323
H	-0.311543	-3.739531	3.730819
C	0.187323	-2.306654	-1.064366
S	-0.257128	-2.306501	1.521154
C	0.000000	-1.435185	0.000000
H	0.365903	-1.978138	-2.095939
C	0.000000	0.000000	0.000000
S	0.000474	0.904764	1.507541
C	-0.000295	2.477305	0.718873
C	0.000752	0.904447	-1.067872
C	-0.001560	2.294593	-0.686410
S	0.003602	0.660872	-2.805516
C	-0.001928	2.412546	-3.054530
C	-0.004381	3.120854	-1.862551
F	-0.009185	4.457503	-1.819088
C	-0.000038	2.860570	-4.456084
O	0.007944	2.090724	-5.406510
O	-0.007501	4.211092	-4.569225
C	-0.002278	4.706177	-5.916207
H	-0.009265	5.807207	-5.833064
H	-0.895381	4.352875	-6.470168
H	0.901521	4.363301	-6.459293
H	-0.001708	3.401562	1.306486
H	-0.791346	-9.143623	-0.457736
H	0.979708	-9.149441	-0.158056
H	-1.064830	-1.443175	-0.180205
$end

$rem
JOBTYPE		SP
EXCHANGE	HF
CORRELATION	pRIMP2
BASIS		cc-pvtz
METHOD		rimp2
AUX_BASIS	rimp2-cc-pvtz
SOLVENT_METHOD	PCM
PURECART	11111
SYMMETRY	false
MEM_TOTAL	110000
SCF_CONVERGENCE = 6
THRESH=10
GUI = 2
$end

$solvent
dielectric 4.90
$end
--------------------------------------------------------------

             Standard Nuclear Orientation (Angstroms)
    I     Atom           X                Y                Z
 ----------------------------------------------------------------
    1      C       0.0959660000    -8.5177020000    -0.3062350000
    2      C      -0.0828070000    -7.6415750000     0.7544150000
    3      S       0.3486350000    -7.6386340000    -1.8337020000
    4      C      -0.0174010000    -6.2647850000     0.3836750000
    5      H      -0.2590080000    -7.9660810000     1.7877570000
    6      C       0.2319130000    -6.0727140000    -1.0208850000
    7      C       0.3050440000    -4.7870490000    -1.5790970000
    8      C      -0.1965490000    -5.1628010000     1.2680820000
    9      C      -0.1276060000    -3.8748170000     0.7087960000
   10      C       0.1247920000    -3.6839520000    -0.6967690000
   11      O      -0.3978670000    -5.4997720000     2.5723780000
   12      O       0.5061030000    -4.4590550000    -2.8895320000
   13      C       1.2673350000    -5.3290630000    -3.7184200000
   14      H       1.5028040000    -4.7556940000    -4.6352040000
   15      H       0.6974710000    -6.2380950000    -4.0107900000
   16      H       2.2151940000    -5.6372620000    -3.2265060000
   17      C      -0.9992380000    -4.5722610000     3.4674150000
   18      H      -1.2306490000    -5.1397430000     4.3886480000
   19      H      -1.9409050000    -4.1531310000     3.0523230000
   20      H      -0.3115430000    -3.7395310000     3.7308190000
   21      C       0.1873230000    -2.3066540000    -1.0643660000
   22      S      -0.2571280000    -2.3065010000     1.5211540000
   23      C       0.0000000000    -1.4351850000     0.0000000000
   24      H       0.3659030000    -1.9781380000    -2.0959390000
   25      C       0.0000000000     0.0000000000     0.0000000000
   26      S       0.0004740000     0.9047640000     1.5075410000
   27      C      -0.0002950000     2.4773050000     0.7188730000
   28      C       0.0007520000     0.9044470000    -1.0678720000
   29      C      -0.0015600000     2.2945930000    -0.6864100000
   30      S       0.0036020000     0.6608720000    -2.8055160000
   31      C      -0.0019280000     2.4125460000    -3.0545300000
   32      C      -0.0043810000     3.1208540000    -1.8625510000
   33      F      -0.0091850000     4.4575030000    -1.8190880000
   34      C      -0.0000380000     2.8605700000    -4.4560840000
   35      O       0.0079440000     2.0907240000    -5.4065100000
   36      O      -0.0075010000     4.2110920000    -4.5692250000
   37      C      -0.0022780000     4.7061770000    -5.9162070000
   38      H      -0.0092650000     5.8072070000    -5.8330640000
   39      H      -0.8953810000     4.3528750000    -6.4701680000
   40      H       0.9015210000     4.3633010000    -6.4592930000
   41      H      -0.0017080000     3.4015620000     1.3064860000
   42      H      -0.7913460000    -9.1436230000    -0.4577360000
   43      H       0.9797080000    -9.1494410000    -0.1580560000
   44      H      -1.0648300000    -1.4431750000    -0.1802050000
 ----------------------------------------------------------------

   11   -2755.3435431246      8.65e-07  Convergence criterion met
 Total energy in the final basis set =    -2755.3435431246
        RIMP2         total energy =     -2760.4339933478 a.u.

                    Orbital Energies (a.u.)
 --------------------------------------------------------------

 Alpha MOs
 -- Occupied --
-92.0151 -91.9960 -91.9831 -91.9598 -26.3426 -20.6149 -20.5898 -20.5877
-20.5615 -11.4095 -11.3812 -11.3129 -11.3120 -11.3102 -11.2984 -11.2982
-11.2905 -11.2888 -11.2863 -11.2861 -11.2856 -11.2844 -11.2828 -11.2751
-11.2739 -11.2618 -11.2601 -11.2515 -11.2412  -9.0137  -8.9963  -8.9853
 -8.9624  -6.6946  -6.6940  -6.6934  -6.6773  -6.6766  -6.6755  -6.6664
 -6.6656  -6.6643  -6.6436  -6.6427  -6.6416  -1.6596  -1.4674  -1.4130
 -1.4096  -1.3701  -1.2302  -1.2034  -1.1759  -1.1374  -1.1019  -1.0487
 -1.0451  -1.0232  -1.0049  -0.9998  -0.9631  -0.9595  -0.9500  -0.9408
 -0.8961  -0.8710  -0.8648  -0.8086  -0.8023  -0.7903  -0.7848  -0.7695
 -0.7567  -0.7383  -0.7245  -0.7109  -0.6998  -0.6934  -0.6847  -0.6816
 -0.6739  -0.6645  -0.6576  -0.6497  -0.6395  -0.6320  -0.6217  -0.6161
 -0.6123  -0.5981  -0.5938  -0.5769  -0.5721  -0.5654  -0.5606  -0.5522
 -0.5498  -0.5363  -0.5315  -0.5291  -0.5144  -0.5100  -0.5089  -0.5021
 -0.4855  -0.4827  -0.4767  -0.4735  -0.4704  -0.4664  -0.4623  -0.4487
 -0.4343  -0.3945  -0.3879  -0.3725  -0.3502  -0.2982  -0.2893  -0.2189

          Ground-State Mulliken Net Atomic Charges

     Atom                 Charge (a.u.)
  ----------------------------------------
      1 C                    -0.070800
      2 C                    -0.248853
      3 S                    -0.131747
      4 C                    -0.050948
      5 H                     0.194835
      6 C                    -0.049606
      7 C                     0.225890
      8 C                     0.236528
      9 C                    -0.077480
     10 C                    -0.028571
     11 O                    -0.333583
     12 O                    -0.343759
     13 C                    -0.083550
     14 H                     0.121433
     15 H                     0.092756
     16 H                     0.092935
     17 C                    -0.089002
     18 H                     0.125268
     19 H                     0.093515
     20 H                     0.090546
     21 C                    -0.334652
     22 S                    -0.096676
     23 C                     0.141405
     24 H                     0.196594
     25 C                    -0.054284
     26 S                     0.070884
     27 C                    -0.219780
     28 C                     0.040557
     29 C                    -0.129525
     30 S                    -0.016129
     31 C                    -0.163479
     32 C                     0.408016
     33 F                    -0.207867
     34 C                     0.443329
     35 O                    -0.460861
     36 O                    -0.300391
     37 C                    -0.058838
     38 H                     0.121578
     39 H                     0.095188
     40 H                     0.095165
     41 H                     0.217632
     42 H                     0.118984
     43 H                     0.116688
     44 H                     0.210655
  ----------------------------------------
  Sum of atomic charges =     0.000000

                    Cartesian Multipole Moments
 -----------------------------------------------------------------
    Charge (ESU x 10^10)
                 0.0000
    Dipole Moment (Debye)
         X      -0.7179      Y       1.2372      Z       3.2589
       Tot       3.5590
    Quadrupole Moments (Debye-Ang)
        XX    -197.5768     XY       0.8138     YY    -168.3461
        XZ      -7.9394     YZ     -12.0891     ZZ    -192.1868

 Total job time:  327.41s(wall), 10652.62s(cpu)
        *  Thank you very much for using Q-Chem.  Have a nice day.  *
