 Q-Chem 5.4, Q-Chem, Inc., Pleasanton, CA (2021)
 Q-Chem 5.4.0 for Intel X86 EM64T Linux

User input:
--------------------------------------------------------------
$molecule
0 1
C	0.041330	-8.517702	-0.318247
C	0.049453	-7.641575	0.757333
S	0.024919	-7.638634	-1.866383
C	0.049488	-6.264785	0.380867
H	0.055368	-7.966081	1.805573
C	0.051115	-6.072714	-1.045647
C	0.026203	-4.787049	-1.608077
C	0.026637	-5.162801	1.282948
C	-0.002586	-3.874817	0.720187
C	0.001903	-3.683952	-0.707853
O	0.054867	-5.499772	2.602386
O	-0.003348	-4.459055	-2.933517
C	0.602384	-5.329063	-3.881999
H	0.675079	-4.755694	-4.825744
H	-0.009592	-6.238095	-4.070972
H	1.621263	-5.637262	-3.562152
C	-0.381947	-4.572261	3.588253
H	-0.449872	-5.139743	4.535674
H	-1.381388	-4.153131	3.342986
H	0.341040	-3.739531	3.728239
C	-0.000348	-2.306654	-1.080725
S	0.010924	-2.306501	1.542694
C	0.000000	-1.435185	0.000000
H	-0.003612	-1.978138	-2.127635
C	0.000000	0.000000	0.000000
S	0.000474	0.904764	1.507541
C	-0.000295	2.477305	0.718873
C	0.000752	0.904447	-1.067872
C	-0.001560	2.294593	-0.686410
S	0.003602	0.660872	-2.805516
C	-0.001928	2.412546	-3.054530
C	-0.004381	3.120854	-1.862551
F	-0.009185	4.457503	-1.819088
C	-0.000038	2.860570	-4.456084
O	0.007944	2.090724	-5.406510
O	-0.007501	4.211092	-4.569225
C	-0.002278	4.706177	-5.916207
H	-0.009265	5.807207	-5.833064
H	-0.895381	4.352875	-6.470168
H	0.901521	4.363301	-6.459293
H	-0.001708	3.401562	1.306486
H	-0.858809	-9.143623	-0.313367
H	0.937378	-9.149441	-0.325780
H	-1.079945	-1.443175	0.007439
$end

$rem
JOBTYPE		SP
EXCHANGE	HF
CORRELATION	pRIMP2
BASIS		cc-pvtz
METHOD		rimp2
AUX_BASIS	rimp2-cc-pvtz
SOLVENT_METHOD	PCM
PURECART	11111
SYMMETRY	false
MEM_TOTAL	110000
SCF_CONVERGENCE = 6
THRESH=10
GUI = 2
$end

$solvent
dielectric 4.90
$end
--------------------------------------------------------------

             Standard Nuclear Orientation (Angstroms)
    I     Atom           X                Y                Z
 ----------------------------------------------------------------
    1      C       0.0413300000    -8.5177020000    -0.3182470000
    2      C       0.0494530000    -7.6415750000     0.7573330000
    3      S       0.0249190000    -7.6386340000    -1.8663830000
    4      C       0.0494880000    -6.2647850000     0.3808670000
    5      H       0.0553680000    -7.9660810000     1.8055730000
    6      C       0.0511150000    -6.0727140000    -1.0456470000
    7      C       0.0262030000    -4.7870490000    -1.6080770000
    8      C       0.0266370000    -5.1628010000     1.2829480000
    9      C      -0.0025860000    -3.8748170000     0.7201870000
   10      C       0.0019030000    -3.6839520000    -0.7078530000
   11      O       0.0548670000    -5.4997720000     2.6023860000
   12      O      -0.0033480000    -4.4590550000    -2.9335170000
   13      C       0.6023840000    -5.3290630000    -3.8819990000
   14      H       0.6750790000    -4.7556940000    -4.8257440000
   15      H      -0.0095920000    -6.2380950000    -4.0709720000
   16      H       1.6212630000    -5.6372620000    -3.5621520000
   17      C      -0.3819470000    -4.5722610000     3.5882530000
   18      H      -0.4498720000    -5.1397430000     4.5356740000
   19      H      -1.3813880000    -4.1531310000     3.3429860000
   20      H       0.3410400000    -3.7395310000     3.7282390000
   21      C      -0.0003480000    -2.3066540000    -1.0807250000
   22      S       0.0109240000    -2.3065010000     1.5426940000
   23      C       0.0000000000    -1.4351850000     0.0000000000
   24      H      -0.0036120000    -1.9781380000    -2.1276350000
   25      C       0.0000000000     0.0000000000     0.0000000000
   26      S       0.0004740000     0.9047640000     1.5075410000
   27      C      -0.0002950000     2.4773050000     0.7188730000
   28      C       0.0007520000     0.9044470000    -1.0678720000
   29      C      -0.0015600000     2.2945930000    -0.6864100000
   30      S       0.0036020000     0.6608720000    -2.8055160000
   31      C      -0.0019280000     2.4125460000    -3.0545300000
   32      C      -0.0043810000     3.1208540000    -1.8625510000
   33      F      -0.0091850000     4.4575030000    -1.8190880000
   34      C      -0.0000380000     2.8605700000    -4.4560840000
   35      O       0.0079440000     2.0907240000    -5.4065100000
   36      O      -0.0075010000     4.2110920000    -4.5692250000
   37      C      -0.0022780000     4.7061770000    -5.9162070000
   38      H      -0.0092650000     5.8072070000    -5.8330640000
   39      H      -0.8953810000     4.3528750000    -6.4701680000
   40      H       0.9015210000     4.3633010000    -6.4592930000
   41      H      -0.0017080000     3.4015620000     1.3064860000
   42      H      -0.8588090000    -9.1436230000    -0.3133670000
   43      H       0.9373780000    -9.1494410000    -0.3257800000
   44      H      -1.0799450000    -1.4431750000     0.0074390000
 ----------------------------------------------------------------

   11   -2755.3433766772      8.77e-07  Convergence criterion met
 Total energy in the final basis set =    -2755.3433766772
        RIMP2         total energy =     -2760.4336034525 a.u.

                    Orbital Energies (a.u.)
 --------------------------------------------------------------

 Alpha MOs
 -- Occupied --
-92.0150 -91.9956 -91.9830 -91.9598 -26.3425 -20.6149 -20.5899 -20.5876
-20.5615 -11.4094 -11.3811 -11.3129 -11.3122 -11.3102 -11.2986 -11.2981
-11.2902 -11.2888 -11.2864 -11.2861 -11.2857 -11.2843 -11.2827 -11.2752
-11.2739 -11.2618 -11.2602 -11.2516 -11.2413  -9.0136  -8.9959  -8.9853
 -8.9624  -6.6945  -6.6939  -6.6933  -6.6770  -6.6762  -6.6751  -6.6664
 -6.6655  -6.6642  -6.6436  -6.6427  -6.6417  -1.6595  -1.4673  -1.4131
 -1.4096  -1.3700  -1.2302  -1.2034  -1.1760  -1.1374  -1.1019  -1.0488
 -1.0449  -1.0233  -1.0049  -0.9998  -0.9632  -0.9594  -0.9501  -0.9407
 -0.8962  -0.8707  -0.8650  -0.8087  -0.8025  -0.7902  -0.7848  -0.7695
 -0.7565  -0.7385  -0.7245  -0.7119  -0.6997  -0.6920  -0.6847  -0.6814
 -0.6738  -0.6642  -0.6577  -0.6497  -0.6396  -0.6321  -0.6218  -0.6161
 -0.6122  -0.5981  -0.5938  -0.5769  -0.5721  -0.5654  -0.5606  -0.5521
 -0.5501  -0.5361  -0.5317  -0.5295  -0.5147  -0.5099  -0.5089  -0.5018
 -0.4854  -0.4825  -0.4769  -0.4735  -0.4709  -0.4666  -0.4616  -0.4485
 -0.4346  -0.3946  -0.3879  -0.3725  -0.3504  -0.2981  -0.2892  -0.2188

          Ground-State Mulliken Net Atomic Charges

     Atom                 Charge (a.u.)
  ----------------------------------------
      1 C                    -0.070656
      2 C                    -0.248585
      3 S                    -0.131814
      4 C                    -0.051010
      5 H                     0.194960
      6 C                    -0.049088
      7 C                     0.226972
      8 C                     0.236380
      9 C                    -0.076359
     10 C                    -0.036015
     11 O                    -0.333310
     12 O                    -0.344194
     13 C                    -0.083659
     14 H                     0.121606
     15 H                     0.092770
     16 H                     0.093006
     17 C                    -0.089092
     18 H                     0.125283
     19 H                     0.093445
     20 H                     0.090532
     21 C                    -0.323064
     22 S                    -0.096625
     23 C                     0.148283
     24 H                     0.194905
     25 C                    -0.064790
     26 S                     0.066613
     27 C                    -0.219524
     28 C                     0.047536
     29 C                    -0.135236
     30 S                    -0.017906
     31 C                    -0.165019
     32 C                     0.411159
     33 F                    -0.208037
     34 C                     0.442761
     35 O                    -0.461045
     36 O                    -0.300410
     37 C                    -0.058875
     38 H                     0.121584
     39 H                     0.095182
     40 H                     0.095179
     41 H                     0.218067
     42 H                     0.118928
     43 H                     0.116682
     44 H                     0.212480
  ----------------------------------------
  Sum of atomic charges =     0.000000

                    Cartesian Multipole Moments
 -----------------------------------------------------------------
    Charge (ESU x 10^10)
                 0.0000
    Dipole Moment (Debye)
         X      -0.6889      Y       1.1969      Z       3.3897
       Tot       3.6602
    Quadrupole Moments (Debye-Ang)
        XX    -199.9959     XY       0.0529     YY    -168.1133
        XZ      -5.6968     YZ     -12.1787     ZZ    -189.8138

 Total job time:  335.94s(wall), 10719.45s(cpu)
        *  Thank you very much for using Q-Chem.  Have a nice day.  *
