 Q-Chem 5.4, Q-Chem, Inc., Pleasanton, CA (2021)
 Q-Chem 5.4.0 for Intel X86 EM64T Linux

User input:
--------------------------------------------------------------
$molecule
0 1
C	0.014560	-8.517702	0.320589
C	-0.180211	-7.641575	-0.737240
S	0.299553	-7.638634	1.842356
C	-0.114873	-6.264785	-0.366488
H	-0.368061	-7.966081	-1.768528
C	0.131236	-6.072714	1.038637
C	0.253435	-4.787049	1.588197
C	-0.249014	-5.162801	-1.258831
C	-0.122513	-3.874817	-0.709695
C	0.121043	-3.683952	0.697430
O	-0.505933	-5.499772	-2.553323
O	0.512697	-4.459055	2.888369
C	0.080869	-5.329063	3.927625
H	0.173159	-4.755694	4.869656
H	0.716363	-6.238095	4.007459
H	-0.978072	-5.637262	3.789565
C	-0.246949	-4.572261	-3.600064
H	-0.344574	-5.139743	-4.544887
H	0.779898	-4.153131	-3.532074
H	-0.983261	-3.739531	-3.612378
C	0.188009	-2.306654	1.064246
S	-0.278644	-2.306501	-1.517360
C	-0.000000	-1.435185	-0.000000
H	0.373017	-1.978138	2.094685
C	0.000000	0.000000	0.000000
S	0.309893	0.850039	1.507541
C	0.847011	2.328006	0.718873
C	0.310046	0.849645	-1.067872
C	0.783331	2.156746	-0.686410
S	0.229416	0.619785	-2.805516
C	0.823328	2.267711	-3.054530
C	1.063278	2.934142	-1.862551
F	1.515925	4.191824	-1.819088
C	0.978337	2.688069	-4.456084
O	0.722535	1.961921	-5.406510
O	1.433229	3.959697	-4.569225
C	1.607467	4.423139	-5.916207
H	1.977475	5.460158	-5.833064
H	0.647388	4.396602	-6.470168
H	2.339490	3.791823	-6.459293
H	1.161798	3.197007	1.306486
H	0.900177	-9.143623	0.159475
H	-0.866566	-9.149441	0.483604
H	1.062246	-1.443175	-0.194856
$end

$rem
JOBTYPE		SP
EXCHANGE	HF
CORRELATION	pRIMP2
BASIS		cc-pvtz
METHOD		rimp2
AUX_BASIS	rimp2-cc-pvtz
SOLVENT_METHOD	PCM
PURECART	11111
SYMMETRY	false
MEM_TOTAL	110000
SCF_CONVERGENCE = 6
THRESH=10
GUI = 2
$end

$solvent
dielectric 4.90
$end
--------------------------------------------------------------

             Standard Nuclear Orientation (Angstroms)
    I     Atom           X                Y                Z
 ----------------------------------------------------------------
    1      C       0.0145600000    -8.5177020000     0.3205890000
    2      C      -0.1802110000    -7.6415750000    -0.7372400000
    3      S       0.2995530000    -7.6386340000     1.8423560000
    4      C      -0.1148730000    -6.2647850000    -0.3664880000
    5      H      -0.3680610000    -7.9660810000    -1.7685280000
    6      C       0.1312360000    -6.0727140000     1.0386370000
    7      C       0.2534350000    -4.7870490000     1.5881970000
    8      C      -0.2490140000    -5.1628010000    -1.2588310000
    9      C      -0.1225130000    -3.8748170000    -0.7096950000
   10      C       0.1210430000    -3.6839520000     0.6974300000
   11      O      -0.5059330000    -5.4997720000    -2.5533230000
   12      O       0.5126970000    -4.4590550000     2.8883690000
   13      C       0.0808690000    -5.3290630000     3.9276250000
   14      H       0.1731590000    -4.7556940000     4.8696560000
   15      H       0.7163630000    -6.2380950000     4.0074590000
   16      H      -0.9780720000    -5.6372620000     3.7895650000
   17      C      -0.2469490000    -4.5722610000    -3.6000640000
   18      H      -0.3445740000    -5.1397430000    -4.5448870000
   19      H       0.7798980000    -4.1531310000    -3.5320740000
   20      H      -0.9832610000    -3.7395310000    -3.6123780000
   21      C       0.1880090000    -2.3066540000     1.0642460000
   22      S      -0.2786440000    -2.3065010000    -1.5173600000
   23      C       0.0000000000    -1.4351850000     0.0000000000
   24      H       0.3730170000    -1.9781380000     2.0946850000
   25      C       0.0000000000     0.0000000000     0.0000000000
   26      S       0.3098930000     0.8500390000     1.5075410000
   27      C       0.8470110000     2.3280060000     0.7188730000
   28      C       0.3100460000     0.8496450000    -1.0678720000
   29      C       0.7833310000     2.1567460000    -0.6864100000
   30      S       0.2294160000     0.6197850000    -2.8055160000
   31      C       0.8233280000     2.2677110000    -3.0545300000
   32      C       1.0632780000     2.9341420000    -1.8625510000
   33      F       1.5159250000     4.1918240000    -1.8190880000
   34      C       0.9783370000     2.6880690000    -4.4560840000
   35      O       0.7225350000     1.9619210000    -5.4065100000
   36      O       1.4332290000     3.9596970000    -4.5692250000
   37      C       1.6074670000     4.4231390000    -5.9162070000
   38      H       1.9774750000     5.4601580000    -5.8330640000
   39      H       0.6473880000     4.3966020000    -6.4701680000
   40      H       2.3394900000     3.7918230000    -6.4592930000
   41      H       1.1617980000     3.1970070000     1.3064860000
   42      H       0.9001770000    -9.1436230000     0.1594750000
   43      H      -0.8665660000    -9.1494410000     0.4836040000
   44      H       1.0622460000    -1.4431750000    -0.1948560000
 ----------------------------------------------------------------

   11   -2755.3368599499      8.21e-07  Convergence criterion met
 Total energy in the final basis set =    -2755.3368599499
        RIMP2         total energy =     -2760.4302000689 a.u.

                    Orbital Energies (a.u.)
 --------------------------------------------------------------

 Alpha MOs
 -- Occupied --
-92.0140 -91.9952 -91.9798 -91.9599 -26.3421 -20.6148 -20.5884 -20.5882
-20.5613 -11.4092 -11.3804 -11.3106 -11.3106 -11.3101 -11.3003 -11.2973
-11.2915 -11.2888 -11.2851 -11.2848 -11.2847 -11.2846 -11.2837 -11.2754
-11.2727 -11.2615 -11.2597 -11.2514 -11.2406  -9.0128  -8.9955  -8.9823
 -8.9625  -6.6936  -6.6930  -6.6925  -6.6765  -6.6757  -6.6745  -6.6635
 -6.6626  -6.6613  -6.6437  -6.6428  -6.6418  -1.6592  -1.4672  -1.4118
 -1.4101  -1.3699  -1.2314  -1.2024  -1.1756  -1.1375  -1.1012  -1.0488
 -1.0443  -1.0241  -1.0046  -0.9981  -0.9640  -0.9568  -0.9497  -0.9421
 -0.8949  -0.8697  -0.8645  -0.8157  -0.7919  -0.7905  -0.7847  -0.7700
 -0.7568  -0.7373  -0.7242  -0.7101  -0.6964  -0.6957  -0.6846  -0.6819
 -0.6737  -0.6650  -0.6566  -0.6495  -0.6380  -0.6316  -0.6216  -0.6161
 -0.6112  -0.5998  -0.5937  -0.5765  -0.5712  -0.5664  -0.5603  -0.5561
 -0.5499  -0.5325  -0.5308  -0.5270  -0.5163  -0.5118  -0.5084  -0.5008
 -0.4848  -0.4796  -0.4769  -0.4734  -0.4707  -0.4656  -0.4598  -0.4479
 -0.4326  -0.3983  -0.3825  -0.3726  -0.3505  -0.3008  -0.2862  -0.2180

          Ground-State Mulliken Net Atomic Charges

     Atom                 Charge (a.u.)
  ----------------------------------------
      1 C                    -0.070808
      2 C                    -0.248755
      3 S                    -0.132221
      4 C                    -0.048580
      5 H                     0.195060
      6 C                    -0.048658
      7 C                     0.218122
      8 C                     0.231727
      9 C                    -0.068560
     10 C                    -0.033540
     11 O                    -0.334114
     12 O                    -0.344170
     13 C                    -0.082733
     14 H                     0.120139
     15 H                     0.092244
     16 H                     0.093160
     17 C                    -0.088872
     18 H                     0.124612
     19 H                     0.093712
     20 H                     0.091425
     21 C                    -0.313094
     22 S                    -0.106261
     23 C                     0.111578
     24 H                     0.198374
     25 C                     0.018610
     26 S                     0.075032
     27 C                    -0.218719
     28 C                    -0.044091
     29 C                    -0.108712
     30 S                    -0.005860
     31 C                    -0.163927
     32 C                     0.405675
     33 F                    -0.207759
     34 C                     0.444527
     35 O                    -0.460546
     36 O                    -0.300734
     37 C                    -0.058641
     38 H                     0.121401
     39 H                     0.095171
     40 H                     0.095000
     41 H                     0.217020
     42 H                     0.118921
     43 H                     0.116574
     44 H                     0.211273
  ----------------------------------------
  Sum of atomic charges =     0.000000

                    Cartesian Multipole Moments
 -----------------------------------------------------------------
    Charge (ESU x 10^10)
                 0.0000
    Dipole Moment (Debye)
         X       1.3934      Y       1.2198      Z       2.6129
       Tot       3.2026
    Quadrupole Moments (Debye-Ang)
        XX    -199.7343     XY       5.5021     YY    -170.9748
        XZ      -5.4370     YZ      -2.8664     ZZ    -188.0665

 Total job time:  361.55s(wall), 11336.51s(cpu)
        *  Thank you very much for using Q-Chem.  Have a nice day.  *
