 Q-Chem 5.4, Q-Chem, Inc., Pleasanton, CA (2021)
 Q-Chem 5.4.0 for Intel X86 EM64T Linux

User input:
--------------------------------------------------------------
$molecule
0 1
C	-0.254945	-8.517702	-0.194917
C	0.680596	-7.641575	0.335839
S	-1.603876	-7.638634	-0.954772
C	0.354585	-6.264785	0.147576
H	1.591356	-7.966081	0.854836
C	-0.879999	-6.072714	-0.567090
C	-1.379534	-4.787049	-0.826731
C	1.124384	-5.162801	0.618405
C	0.622407	-3.874817	0.362333
C	-0.612067	-3.683952	-0.355575
O	2.281166	-5.499772	1.253677
O	-2.542174	-4.459055	-1.463859
C	-3.060718	-5.329063	-2.462679
H	-3.841678	-4.755694	-2.997507
H	-3.530361	-6.238095	-2.027179
H	-2.274283	-5.637262	-3.185132
C	2.916545	-4.572261	2.124902
H	3.703073	-5.139743	2.657438
H	2.204417	-4.153131	2.867810
H	3.399269	-3.739531	1.568770
C	-0.936109	-2.306654	-0.540061
S	1.341474	-2.306501	0.761887
C	-0.000000	-1.435185	-0.000000
H	-1.844392	-1.978138	-1.060690
C	0.000000	0.000000	0.000000
S	0.382799	0.819795	1.507541
C	1.046687	2.245325	0.718873
C	0.382918	0.819389	-1.067872
C	0.968323	2.080267	-0.686410
S	0.282561	0.597432	-2.805516
C	1.017839	2.187324	-3.054530
C	1.314960	2.830306	-1.862551
F	1.875498	4.043751	-1.819088
C	1.208895	2.592573	-4.456084
O	0.890778	1.891482	-5.406510
O	1.772886	3.819715	-4.569225
C	1.986852	4.266207	-5.916207
H	2.445834	5.267032	-5.833064
H	1.028114	4.323448	-6.470168
H	2.661066	3.573494	-6.459293
H	1.436015	3.083584	1.306486
H	-0.700788	-9.143623	0.587067
H	0.186556	-9.149441	-0.974683
H	-0.533530	-1.443175	0.938979
$end

$rem
JOBTYPE		SP
EXCHANGE	HF
CORRELATION	pRIMP2
BASIS		cc-pvtz
METHOD		rimp2
AUX_BASIS	rimp2-cc-pvtz
SOLVENT_METHOD	PCM
PURECART	11111
SYMMETRY	false
MEM_TOTAL	110000
SCF_CONVERGENCE = 6
THRESH=10
GUI = 2
$end

$solvent
dielectric 4.90
$end
--------------------------------------------------------------

             Standard Nuclear Orientation (Angstroms)
    I     Atom           X                Y                Z
 ----------------------------------------------------------------
    1      C      -0.2549450000    -8.5177020000    -0.1949170000
    2      C       0.6805960000    -7.6415750000     0.3358390000
    3      S      -1.6038760000    -7.6386340000    -0.9547720000
    4      C       0.3545850000    -6.2647850000     0.1475760000
    5      H       1.5913560000    -7.9660810000     0.8548360000
    6      C      -0.8799990000    -6.0727140000    -0.5670900000
    7      C      -1.3795340000    -4.7870490000    -0.8267310000
    8      C       1.1243840000    -5.1628010000     0.6184050000
    9      C       0.6224070000    -3.8748170000     0.3623330000
   10      C      -0.6120670000    -3.6839520000    -0.3555750000
   11      O       2.2811660000    -5.4997720000     1.2536770000
   12      O      -2.5421740000    -4.4590550000    -1.4638590000
   13      C      -3.0607180000    -5.3290630000    -2.4626790000
   14      H      -3.8416780000    -4.7556940000    -2.9975070000
   15      H      -3.5303610000    -6.2380950000    -2.0271790000
   16      H      -2.2742830000    -5.6372620000    -3.1851320000
   17      C       2.9165450000    -4.5722610000     2.1249020000
   18      H       3.7030730000    -5.1397430000     2.6574380000
   19      H       2.2044170000    -4.1531310000     2.8678100000
   20      H       3.3992690000    -3.7395310000     1.5687700000
   21      C      -0.9361090000    -2.3066540000    -0.5400610000
   22      S       1.3414740000    -2.3065010000     0.7618870000
   23      C       0.0000000000    -1.4351850000     0.0000000000
   24      H      -1.8443920000    -1.9781380000    -1.0606900000
   25      C       0.0000000000     0.0000000000     0.0000000000
   26      S       0.3827990000     0.8197950000     1.5075410000
   27      C       1.0466870000     2.2453250000     0.7188730000
   28      C       0.3829180000     0.8193890000    -1.0678720000
   29      C       0.9683230000     2.0802670000    -0.6864100000
   30      S       0.2825610000     0.5974320000    -2.8055160000
   31      C       1.0178390000     2.1873240000    -3.0545300000
   32      C       1.3149600000     2.8303060000    -1.8625510000
   33      F       1.8754980000     4.0437510000    -1.8190880000
   34      C       1.2088950000     2.5925730000    -4.4560840000
   35      O       0.8907780000     1.8914820000    -5.4065100000
   36      O       1.7728860000     3.8197150000    -4.5692250000
   37      C       1.9868520000     4.2662070000    -5.9162070000
   38      H       2.4458340000     5.2670320000    -5.8330640000
   39      H       1.0281140000     4.3234480000    -6.4701680000
   40      H       2.6610660000     3.5734940000    -6.4592930000
   41      H       1.4360150000     3.0835840000     1.3064860000
   42      H      -0.7007880000    -9.1436230000     0.5870670000
   43      H       0.1865560000    -9.1494410000    -0.9746830000
   44      H      -0.5335300000    -1.4431750000     0.9389790000
 ----------------------------------------------------------------

   11   -2755.3336209032      7.77e-07  Convergence criterion met
 Total energy in the final basis set =    -2755.3336209032
        RIMP2         total energy =     -2760.4238744379 a.u.

                    Orbital Energies (a.u.)
 --------------------------------------------------------------

 Alpha MOs
 -- Occupied --
-92.0168 -92.0000 -91.9765 -91.9571 -26.3440 -20.6152 -20.5866 -20.5860
-20.5617 -11.4098 -11.3833 -11.3154 -11.3084 -11.3056 -11.3014 -11.2983
-11.2949 -11.2891 -11.2856 -11.2841 -11.2823 -11.2821 -11.2778 -11.2721
-11.2714 -11.2572 -11.2557 -11.2486 -11.2344  -9.0156  -9.0000  -8.9789
 -8.9597  -6.6964  -6.6958  -6.6953  -6.6810  -6.6803  -6.6792  -6.6599
 -6.6591  -6.6578  -6.6410  -6.6400  -6.6390  -1.6611  -1.4676  -1.4095
 -1.4082  -1.3703  -1.2299  -1.2021  -1.1726  -1.1383  -1.0988  -1.0455
 -1.0445  -1.0251  -1.0032  -0.9960  -0.9632  -0.9590  -0.9477  -0.9402
 -0.8928  -0.8691  -0.8654  -0.8135  -0.7990  -0.7885  -0.7839  -0.7668
 -0.7569  -0.7374  -0.7259  -0.7168  -0.6971  -0.6865  -0.6848  -0.6793
 -0.6742  -0.6604  -0.6556  -0.6480  -0.6340  -0.6303  -0.6189  -0.6144
 -0.6116  -0.5997  -0.5915  -0.5751  -0.5715  -0.5639  -0.5577  -0.5529
 -0.5455  -0.5333  -0.5311  -0.5267  -0.5128  -0.5078  -0.5069  -0.5006
 -0.4848  -0.4820  -0.4755  -0.4746  -0.4727  -0.4688  -0.4594  -0.4453
 -0.4248  -0.3975  -0.3849  -0.3690  -0.3507  -0.3023  -0.2882  -0.2186

          Ground-State Mulliken Net Atomic Charges

     Atom                 Charge (a.u.)
  ----------------------------------------
      1 C                    -0.069812
      2 C                    -0.267091
      3 S                    -0.137511
      4 C                    -0.041954
      5 H                     0.192437
      6 C                    -0.052549
      7 C                     0.222027
      8 C                     0.220821
      9 C                    -0.075644
     10 C                    -0.049279
     11 O                    -0.335199
     12 O                    -0.343625
     13 C                    -0.082546
     14 H                     0.120027
     15 H                     0.091749
     16 H                     0.093151
     17 C                    -0.086884
     18 H                     0.123043
     19 H                     0.091391
     20 H                     0.090120
     21 C                    -0.254913
     22 S                    -0.071740
     23 C                     0.034255
     24 H                     0.208840
     25 C                    -0.096522
     26 S                     0.088300
     27 C                    -0.172821
     28 C                     0.044518
     29 C                    -0.108682
     30 S                     0.014279
     31 C                    -0.156272
     32 C                     0.399087
     33 F                    -0.206524
     34 C                     0.444760
     35 O                    -0.460687
     36 O                    -0.300917
     37 C                    -0.058436
     38 H                     0.121421
     39 H                     0.095153
     40 H                     0.095292
     41 H                     0.219117
     42 H                     0.116279
     43 H                     0.114117
     44 H                     0.189426
  ----------------------------------------
  Sum of atomic charges =     0.000000

                    Cartesian Multipole Moments
 -----------------------------------------------------------------
    Charge (ESU x 10^10)
                -0.0000
    Dipole Moment (Debye)
         X       1.0931      Y       3.3968      Z       3.4236
       Tot       4.9452
    Quadrupole Moments (Debye-Ang)
        XX    -191.1188     XY       3.2787     YY    -180.9617
        XZ       6.0387     YZ      -8.4556     ZZ    -195.3187

 Total job time:  323.30s(wall), 10701.54s(cpu)
        *  Thank you very much for using Q-Chem.  Have a nice day.  *
