 Q-Chem 5.4, Q-Chem, Inc., Pleasanton, CA (2021)
 Q-Chem 5.4.0 for Intel X86 EM64T Linux

User input:
--------------------------------------------------------------
$molecule
0 1
C	-0.313191	-8.517702	0.070009
C	0.694746	-7.641575	-0.305494
S	-1.762350	-7.638634	0.614924
C	0.340973	-6.264785	-0.176768
H	1.677747	-7.966081	-0.669571
C	-1.000069	-6.072714	0.309600
C	-1.520060	-4.787049	0.525372
C	1.196466	-5.162801	-0.463825
C	0.677639	-3.874817	-0.243888
C	-0.665815	-3.683952	0.240312
O	2.426678	-5.499772	-0.941626
O	-2.755460	-4.459055	1.006468
C	-3.853913	-5.329063	0.761666
H	-4.765607	-4.755694	1.016135
H	-3.822182	-6.238095	1.401368
H	-3.901833	-5.637262	-0.305161
C	3.502489	-4.572261	-0.868342
H	4.416005	-5.139743	-1.128551
H	3.613841	-4.153131	0.154712
H	3.386756	-3.739531	-1.595605
C	-1.015430	-2.306654	0.369957
S	1.445922	-2.306501	-0.537898
C	-0.000000	-1.435185	-0.000000
H	-1.998088	-1.978138	0.731088
C	0.000000	0.000000	0.000000
S	0.309893	0.850039	1.507541
C	0.847011	2.328006	0.718873
C	0.310046	0.849645	-1.067872
C	0.783331	2.156746	-0.686410
S	0.229416	0.619785	-2.805516
C	0.823328	2.267711	-3.054530
C	1.063278	2.934142	-1.862551
F	1.515925	4.191824	-1.819088
C	0.978337	2.688069	-4.456084
O	0.722535	1.961921	-5.406510
O	1.433229	3.959697	-4.569225
C	1.607467	4.423139	-5.916207
H	1.977475	5.460158	-5.833064
H	0.647388	4.396602	-6.470168
H	2.339490	3.791823	-6.459293
H	1.161798	3.197007	1.306486
H	-0.000738	-9.143623	0.914194
H	-0.626735	-9.149441	-0.769424
H	0.376353	-1.443175	1.012272
$end

$rem
JOBTYPE		SP
EXCHANGE	HF
CORRELATION	pRIMP2
BASIS		cc-pvtz
METHOD		rimp2
AUX_BASIS	rimp2-cc-pvtz
SOLVENT_METHOD	PCM
PURECART	11111
SYMMETRY	false
MEM_TOTAL	110000
SCF_CONVERGENCE = 6
THRESH=10
GUI = 2
$end

$solvent
dielectric 4.90
$end
--------------------------------------------------------------

             Standard Nuclear Orientation (Angstroms)
    I     Atom           X                Y                Z
 ----------------------------------------------------------------
    1      C      -0.3131910000    -8.5177020000     0.0700090000
    2      C       0.6947460000    -7.6415750000    -0.3054940000
    3      S      -1.7623500000    -7.6386340000     0.6149240000
    4      C       0.3409730000    -6.2647850000    -0.1767680000
    5      H       1.6777470000    -7.9660810000    -0.6695710000
    6      C      -1.0000690000    -6.0727140000     0.3096000000
    7      C      -1.5200600000    -4.7870490000     0.5253720000
    8      C       1.1964660000    -5.1628010000    -0.4638250000
    9      C       0.6776390000    -3.8748170000    -0.2438880000
   10      C      -0.6658150000    -3.6839520000     0.2403120000
   11      O       2.4266780000    -5.4997720000    -0.9416260000
   12      O      -2.7554600000    -4.4590550000     1.0064680000
   13      C      -3.8539130000    -5.3290630000     0.7616660000
   14      H      -4.7656070000    -4.7556940000     1.0161350000
   15      H      -3.8221820000    -6.2380950000     1.4013680000
   16      H      -3.9018330000    -5.6372620000    -0.3051610000
   17      C       3.5024890000    -4.5722610000    -0.8683420000
   18      H       4.4160050000    -5.1397430000    -1.1285510000
   19      H       3.6138410000    -4.1531310000     0.1547120000
   20      H       3.3867560000    -3.7395310000    -1.5956050000
   21      C      -1.0154300000    -2.3066540000     0.3699570000
   22      S       1.4459220000    -2.3065010000    -0.5378980000
   23      C       0.0000000000    -1.4351850000     0.0000000000
   24      H      -1.9980880000    -1.9781380000     0.7310880000
   25      C       0.0000000000     0.0000000000     0.0000000000
   26      S       0.3098930000     0.8500390000     1.5075410000
   27      C       0.8470110000     2.3280060000     0.7188730000
   28      C       0.3100460000     0.8496450000    -1.0678720000
   29      C       0.7833310000     2.1567460000    -0.6864100000
   30      S       0.2294160000     0.6197850000    -2.8055160000
   31      C       0.8233280000     2.2677110000    -3.0545300000
   32      C       1.0632780000     2.9341420000    -1.8625510000
   33      F       1.5159250000     4.1918240000    -1.8190880000
   34      C       0.9783370000     2.6880690000    -4.4560840000
   35      O       0.7225350000     1.9619210000    -5.4065100000
   36      O       1.4332290000     3.9596970000    -4.5692250000
   37      C       1.6074670000     4.4231390000    -5.9162070000
   38      H       1.9774750000     5.4601580000    -5.8330640000
   39      H       0.6473880000     4.3966020000    -6.4701680000
   40      H       2.3394900000     3.7918230000    -6.4592930000
   41      H       1.1617980000     3.1970070000     1.3064860000
   42      H      -0.0007380000    -9.1436230000     0.9141940000
   43      H      -0.6267350000    -9.1494410000    -0.7694240000
   44      H       0.3763530000    -1.4431750000     1.0122720000
 ----------------------------------------------------------------

   11   -2755.3375774343      7.57e-07  Convergence criterion met
 Total energy in the final basis set =    -2755.3375774343
        RIMP2         total energy =     -2760.4261957277 a.u.

                    Orbital Energies (a.u.)
 --------------------------------------------------------------

 Alpha MOs
 -- Occupied --
-92.0162 -91.9986 -91.9773 -91.9573 -26.3437 -20.6150 -20.5870 -20.5861
-20.5614 -11.4095 -11.3828 -11.3135 -11.3086 -11.3060 -11.3007 -11.2981
-11.2980 -11.2889 -11.2854 -11.2839 -11.2826 -11.2824 -11.2785 -11.2715
-11.2714 -11.2574 -11.2556 -11.2488 -11.2349  -9.0151  -8.9986  -8.9794
 -8.9599  -6.6958  -6.6952  -6.6946  -6.6797  -6.6789  -6.6778  -6.6605
 -6.6596  -6.6583  -6.6412  -6.6402  -6.6392  -1.6608  -1.4674  -1.4097
 -1.4085  -1.3701  -1.2300  -1.2020  -1.1729  -1.1381  -1.0990  -1.0460
 -1.0439  -1.0252  -1.0032  -0.9960  -0.9635  -0.9580  -0.9479  -0.9406
 -0.8928  -0.8688  -0.8654  -0.8152  -0.7962  -0.7890  -0.7840  -0.7674
 -0.7567  -0.7377  -0.7256  -0.7167  -0.6965  -0.6869  -0.6847  -0.6794
 -0.6740  -0.6608  -0.6556  -0.6482  -0.6347  -0.6297  -0.6192  -0.6147
 -0.6109  -0.5994  -0.5915  -0.5762  -0.5717  -0.5631  -0.5596  -0.5560
 -0.5467  -0.5329  -0.5312  -0.5240  -0.5124  -0.5082  -0.5070  -0.5009
 -0.4854  -0.4814  -0.4760  -0.4739  -0.4691  -0.4683  -0.4604  -0.4461
 -0.4240  -0.3987  -0.3845  -0.3693  -0.3516  -0.3014  -0.2889  -0.2194

          Ground-State Mulliken Net Atomic Charges

     Atom                 Charge (a.u.)
  ----------------------------------------
      1 C                    -0.069813
      2 C                    -0.265290
      3 S                    -0.137947
      4 C                    -0.042932
      5 H                     0.192701
      6 C                    -0.052798
      7 C                     0.223948
      8 C                     0.221963
      9 C                    -0.071582
     10 C                    -0.041999
     11 O                    -0.335091
     12 O                    -0.343461
     13 C                    -0.082670
     14 H                     0.119737
     15 H                     0.092022
     16 H                     0.093137
     17 C                    -0.086960
     18 H                     0.123139
     19 H                     0.091606
     20 H                     0.090959
     21 C                    -0.273258
     22 S                    -0.071044
     23 C                     0.063836
     24 H                     0.203620
     25 C                    -0.046836
     26 S                     0.090675
     27 C                    -0.184595
     28 C                    -0.041117
     29 C                    -0.086796
     30 S                     0.019051
     31 C                    -0.155511
     32 C                     0.394660
     33 F                    -0.206726
     34 C                     0.445389
     35 O                    -0.460357
     36 O                    -0.300875
     37 C                    -0.058398
     38 H                     0.121303
     39 H                     0.095192
     40 H                     0.095177
     41 H                     0.219020
     42 H                     0.116414
     43 H                     0.114337
     44 H                     0.188169
  ----------------------------------------
  Sum of atomic charges =     0.000000

                    Cartesian Multipole Moments
 -----------------------------------------------------------------
    Charge (ESU x 10^10)
                -0.0000
    Dipole Moment (Debye)
         X       1.3247      Y       3.2860      Z       3.3933
       Tot       4.9058
    Quadrupole Moments (Debye-Ang)
        XX    -181.6108     XY       1.6848     YY    -179.6447
        XZ      -2.8430     YZ      -5.6004     ZZ    -205.9513

 Total job time:  384.64s(wall), 11498.30s(cpu)
        *  Thank you very much for using Q-Chem.  Have a nice day.  *
