 Q-Chem 5.4, Q-Chem, Inc., Pleasanton, CA (2021)
 Q-Chem 5.4.0 for Intel X86 EM64T Linux

User input:
--------------------------------------------------------------
$molecule
0 1
C	-0.270358	-8.517702	0.172904
C	0.548363	-7.641575	-0.524688
S	-1.445750	-7.638634	1.180599
C	0.259951	-6.264785	-0.282727
H	1.347559	-7.966081	-1.203014
C	-0.833868	-6.072714	0.632972
C	-1.248701	-4.787049	1.013580
C	0.965673	-5.162801	-0.845068
C	0.553357	-3.874817	-0.460946
C	-0.543470	-3.683952	0.453541
O	1.958276	-5.499772	-1.714812
O	-2.245053	-4.459055	1.888193
C	-3.360989	-5.329063	2.033848
H	-4.130667	-4.755694	2.584788
H	-3.112380	-6.238095	2.624118
H	-3.770895	-5.637262	1.047748
C	2.994272	-4.572261	-2.013896
H	3.763700	-5.139743	-2.570853
H	3.448815	-4.153131	-1.090625
H	2.636780	-3.739531	-2.657717
C	-0.827659	-2.306654	0.694943
S	1.174750	-2.306501	-0.999993
C	0.000000	-1.435185	0.000000
H	-1.627541	-1.978138	1.370385
C	0.000000	0.000000	0.000000
S	0.693394	0.581209	1.507541
C	1.897536	1.592607	0.718873
C	0.693330	0.580791	-1.067872
C	1.756758	1.476132	-0.686410
S	0.508573	0.422041	-2.805516
C	1.846879	1.552232	-3.054530
C	2.387897	2.009402	-1.862551
F	3.408741	2.872264	-1.819088
C	2.191300	1.838768	-4.456084
O	1.606694	1.337806	-5.406510
O	3.221062	2.712584	-4.569225
C	3.603677	3.026817	-5.916207
H	4.442623	3.739898	-5.833064
H	2.758956	3.483875	-6.470168
H	3.921969	2.114070	-6.459293
H	2.604650	2.187790	1.306486
H	0.311979	-9.143623	0.859314
H	-0.852097	-9.149441	-0.508666
H	0.699874	-1.443175	0.822504
$end

$rem
JOBTYPE		SP
EXCHANGE	HF
CORRELATION	pRIMP2
BASIS		cc-pvtz
METHOD		rimp2
AUX_BASIS	rimp2-cc-pvtz
SOLVENT_METHOD	PCM
PURECART	11111
SYMMETRY	false
MEM_TOTAL	110000
SCF_CONVERGENCE = 6
THRESH=10
GUI = 2
$end

$solvent
dielectric 4.90
$end
--------------------------------------------------------------

             Standard Nuclear Orientation (Angstroms)
    I     Atom           X                Y                Z
 ----------------------------------------------------------------
    1      C      -0.2703580000    -8.5177020000     0.1729040000
    2      C       0.5483630000    -7.6415750000    -0.5246880000
    3      S      -1.4457500000    -7.6386340000     1.1805990000
    4      C       0.2599510000    -6.2647850000    -0.2827270000
    5      H       1.3475590000    -7.9660810000    -1.2030140000
    6      C      -0.8338680000    -6.0727140000     0.6329720000
    7      C      -1.2487010000    -4.7870490000     1.0135800000
    8      C       0.9656730000    -5.1628010000    -0.8450680000
    9      C       0.5533570000    -3.8748170000    -0.4609460000
   10      C      -0.5434700000    -3.6839520000     0.4535410000
   11      O       1.9582760000    -5.4997720000    -1.7148120000
   12      O      -2.2450530000    -4.4590550000     1.8881930000
   13      C      -3.3609890000    -5.3290630000     2.0338480000
   14      H      -4.1306670000    -4.7556940000     2.5847880000
   15      H      -3.1123800000    -6.2380950000     2.6241180000
   16      H      -3.7708950000    -5.6372620000     1.0477480000
   17      C       2.9942720000    -4.5722610000    -2.0138960000
   18      H       3.7637000000    -5.1397430000    -2.5708530000
   19      H       3.4488150000    -4.1531310000    -1.0906250000
   20      H       2.6367800000    -3.7395310000    -2.6577170000
   21      C      -0.8276590000    -2.3066540000     0.6949430000
   22      S       1.1747500000    -2.3065010000    -0.9999930000
   23      C       0.0000000000    -1.4351850000     0.0000000000
   24      H      -1.6275410000    -1.9781380000     1.3703850000
   25      C       0.0000000000     0.0000000000     0.0000000000
   26      S       0.6933940000     0.5812090000     1.5075410000
   27      C       1.8975360000     1.5926070000     0.7188730000
   28      C       0.6933300000     0.5807910000    -1.0678720000
   29      C       1.7567580000     1.4761320000    -0.6864100000
   30      S       0.5085730000     0.4220410000    -2.8055160000
   31      C       1.8468790000     1.5522320000    -3.0545300000
   32      C       2.3878970000     2.0094020000    -1.8625510000
   33      F       3.4087410000     2.8722640000    -1.8190880000
   34      C       2.1913000000     1.8387680000    -4.4560840000
   35      O       1.6066940000     1.3378060000    -5.4065100000
   36      O       3.2210620000     2.7125840000    -4.5692250000
   37      C       3.6036770000     3.0268170000    -5.9162070000
   38      H       4.4426230000     3.7398980000    -5.8330640000
   39      H       2.7589560000     3.4838750000    -6.4701680000
   40      H       3.9219690000     2.1140700000    -6.4592930000
   41      H       2.6046500000     2.1877900000     1.3064860000
   42      H       0.3119790000    -9.1436230000     0.8593140000
   43      H      -0.8520970000    -9.1494410000    -0.5086660000
   44      H       0.6998740000    -1.4431750000     0.8225040000
 ----------------------------------------------------------------

   11   -2755.2892275614      8.37e-07  Convergence criterion met
 Total energy in the final basis set =    -2755.2892275614
        RIMP2         total energy =     -2760.3907502726 a.u.

                    Orbital Energies (a.u.)
 --------------------------------------------------------------

 Alpha MOs
 -- Occupied --
-92.0102 -92.0032 -91.9743 -91.9559 -26.3453 -20.6156 -20.5862 -20.5846
-20.5621 -11.4104 -11.3855 -11.3276 -11.3109 -11.3075 -11.3034 -11.2986
-11.2894 -11.2875 -11.2855 -11.2831 -11.2821 -11.2800 -11.2726 -11.2694
-11.2678 -11.2560 -11.2525 -11.2475 -11.2319  -9.0106  -9.0033  -8.9766
 -8.9586  -6.6913  -6.6904  -6.6901  -6.6842  -6.6834  -6.6824  -6.6577
 -6.6568  -6.6555  -6.6398  -6.6389  -6.6379  -1.6624  -1.4681  -1.4086
 -1.4074  -1.3708  -1.2396  -1.1997  -1.1720  -1.1410  -1.0976  -1.0487
 -1.0428  -1.0286  -1.0014  -0.9936  -0.9662  -0.9569  -0.9476  -0.9409
 -0.8916  -0.8713  -0.8596  -0.8195  -0.7952  -0.7875  -0.7820  -0.7665
 -0.7571  -0.7383  -0.7272  -0.7169  -0.6953  -0.6901  -0.6854  -0.6791
 -0.6747  -0.6631  -0.6546  -0.6473  -0.6361  -0.6299  -0.6179  -0.6143
 -0.6105  -0.6015  -0.5907  -0.5762  -0.5721  -0.5655  -0.5590  -0.5554
 -0.5399  -0.5325  -0.5313  -0.5245  -0.5120  -0.5105  -0.5062  -0.4994
 -0.4865  -0.4811  -0.4761  -0.4740  -0.4685  -0.4643  -0.4563  -0.4450
 -0.4270  -0.3938  -0.3811  -0.3679  -0.3536  -0.3032  -0.2866  -0.2145

          Ground-State Mulliken Net Atomic Charges

     Atom                 Charge (a.u.)
  ----------------------------------------
      1 C                    -0.069418
      2 C                    -0.274050
      3 S                    -0.140994
      4 C                    -0.043907
      5 H                     0.191635
      6 C                    -0.051025
      7 C                     0.217907
      8 C                     0.218456
      9 C                    -0.069008
     10 C                    -0.034406
     11 O                    -0.335452
     12 O                    -0.343579
     13 C                    -0.082782
     14 H                     0.119347
     15 H                     0.092061
     16 H                     0.092863
     17 C                    -0.088532
     18 H                     0.123214
     19 H                     0.090609
     20 H                     0.091005
     21 C                    -0.310614
     22 S                    -0.094452
     23 C                     0.100375
     24 H                     0.203251
     25 C                    -0.108477
     26 S                     0.084957
     27 C                    -0.139456
     28 C                    -0.016077
     29 C                    -0.094195
     30 S                     0.054504
     31 C                    -0.151341
     32 C                     0.399415
     33 F                    -0.205796
     34 C                     0.445639
     35 O                    -0.461116
     36 O                    -0.301067
     37 C                    -0.058323
     38 H                     0.121454
     39 H                     0.095340
     40 H                     0.095240
     41 H                     0.219789
     42 H                     0.115309
     43 H                     0.113075
     44 H                     0.188623
  ----------------------------------------
  Sum of atomic charges =     0.000000

                    Cartesian Multipole Moments
 -----------------------------------------------------------------
    Charge (ESU x 10^10)
                 0.0000
    Dipole Moment (Debye)
         X       3.2562      Y       3.4192      Z       2.9546
       Tot       5.5698
    Quadrupole Moments (Debye-Ang)
        XX    -175.8249     XY       5.8878     YY    -191.9554
        XZ     -11.6151     YZ      -2.2125     ZZ    -202.5760

 Total job time:  325.98s(wall), 10613.60s(cpu)
        *  Thank you very much for using Q-Chem.  Have a nice day.  *
