 Q-Chem 5.4, Q-Chem, Inc., Pleasanton, CA (2021)
 Q-Chem 5.4.0 for Intel X86 EM64T Linux

User input:
--------------------------------------------------------------
$molecule
0 1
C	0.095966	-8.517702	-0.306235
C	-0.082807	-7.641575	0.754415
S	0.348635	-7.638634	-1.833702
C	-0.017401	-6.264785	0.383675
H	-0.259008	-7.966081	1.787757
C	0.231913	-6.072714	-1.020885
C	0.305044	-4.787049	-1.579097
C	-0.196549	-5.162801	1.268082
C	-0.127606	-3.874817	0.708796
C	0.124792	-3.683952	-0.696769
O	-0.397867	-5.499772	2.572378
O	0.506103	-4.459055	-2.889532
C	1.267335	-5.329063	-3.718420
H	1.502804	-4.755694	-4.635204
H	0.697471	-6.238095	-4.010790
H	2.215194	-5.637262	-3.226506
C	-0.999238	-4.572261	3.467415
H	-1.230649	-5.139743	4.388648
H	-1.940905	-4.153131	3.052323
H	-0.311543	-3.739531	3.730819
C	0.187323	-2.306654	-1.064366
S	-0.257128	-2.306501	1.521154
C	0.000000	-1.435185	0.000000
H	0.365903	-1.978138	-2.095939
C	0.000000	0.000000	0.000000
S	0.452792	0.783312	1.507541
C	1.238397	2.145556	0.718873
C	0.452875	0.782898	-1.067872
C	1.145945	1.987956	-0.686410
S	0.333556	0.570531	-2.805516
C	1.204604	2.090290	-3.054530
C	1.556633	2.704929	-1.862551
F	2.220797	3.864903	-1.819088
C	1.430252	2.477345	-4.456084
O	1.052242	1.806648	-5.406510
O	2.099050	3.650663	-4.569225
C	2.351116	4.076808	-5.916207
H	2.895579	5.033821	-5.833064
H	1.401015	4.217390	-6.470168
H	2.962391	3.327969	-6.459293
H	1.699302	2.946693	1.306486
H	-0.791346	-9.143623	-0.457736
H	0.979708	-9.149441	-0.158056
H	-1.064830	-1.443175	-0.180205
$end

$rem
JOBTYPE		SP
EXCHANGE	HF
CORRELATION	pRIMP2
BASIS		cc-pvtz
METHOD		rimp2
AUX_BASIS	rimp2-cc-pvtz
SOLVENT_METHOD	PCM
PURECART	11111
SYMMETRY	false
MEM_TOTAL	110000
SCF_CONVERGENCE = 6
THRESH=10
GUI = 2
$end

$solvent
dielectric 4.90
$end
--------------------------------------------------------------

             Standard Nuclear Orientation (Angstroms)
    I     Atom           X                Y                Z
 ----------------------------------------------------------------
    1      C       0.0959660000    -8.5177020000    -0.3062350000
    2      C      -0.0828070000    -7.6415750000     0.7544150000
    3      S       0.3486350000    -7.6386340000    -1.8337020000
    4      C      -0.0174010000    -6.2647850000     0.3836750000
    5      H      -0.2590080000    -7.9660810000     1.7877570000
    6      C       0.2319130000    -6.0727140000    -1.0208850000
    7      C       0.3050440000    -4.7870490000    -1.5790970000
    8      C      -0.1965490000    -5.1628010000     1.2680820000
    9      C      -0.1276060000    -3.8748170000     0.7087960000
   10      C       0.1247920000    -3.6839520000    -0.6967690000
   11      O      -0.3978670000    -5.4997720000     2.5723780000
   12      O       0.5061030000    -4.4590550000    -2.8895320000
   13      C       1.2673350000    -5.3290630000    -3.7184200000
   14      H       1.5028040000    -4.7556940000    -4.6352040000
   15      H       0.6974710000    -6.2380950000    -4.0107900000
   16      H       2.2151940000    -5.6372620000    -3.2265060000
   17      C      -0.9992380000    -4.5722610000     3.4674150000
   18      H      -1.2306490000    -5.1397430000     4.3886480000
   19      H      -1.9409050000    -4.1531310000     3.0523230000
   20      H      -0.3115430000    -3.7395310000     3.7308190000
   21      C       0.1873230000    -2.3066540000    -1.0643660000
   22      S      -0.2571280000    -2.3065010000     1.5211540000
   23      C       0.0000000000    -1.4351850000     0.0000000000
   24      H       0.3659030000    -1.9781380000    -2.0959390000
   25      C       0.0000000000     0.0000000000     0.0000000000
   26      S       0.4527920000     0.7833120000     1.5075410000
   27      C       1.2383970000     2.1455560000     0.7188730000
   28      C       0.4528750000     0.7828980000    -1.0678720000
   29      C       1.1459450000     1.9879560000    -0.6864100000
   30      S       0.3335560000     0.5705310000    -2.8055160000
   31      C       1.2046040000     2.0902900000    -3.0545300000
   32      C       1.5566330000     2.7049290000    -1.8625510000
   33      F       2.2207970000     3.8649030000    -1.8190880000
   34      C       1.4302520000     2.4773450000    -4.4560840000
   35      O       1.0522420000     1.8066480000    -5.4065100000
   36      O       2.0990500000     3.6506630000    -4.5692250000
   37      C       2.3511160000     4.0768080000    -5.9162070000
   38      H       2.8955790000     5.0338210000    -5.8330640000
   39      H       1.4010150000     4.2173900000    -6.4701680000
   40      H       2.9623910000     3.3279690000    -6.4592930000
   41      H       1.6993020000     2.9466930000     1.3064860000
   42      H      -0.7913460000    -9.1436230000    -0.4577360000
   43      H       0.9797080000    -9.1494410000    -0.1580560000
   44      H      -1.0648300000    -1.4431750000    -0.1802050000
 ----------------------------------------------------------------

   11   -2755.3204148883      8.44e-07  Convergence criterion met
 Total energy in the final basis set =    -2755.3204148883
        RIMP2         total energy =     -2760.4176045997 a.u.

                    Orbital Energies (a.u.)
 --------------------------------------------------------------

 Alpha MOs
 -- Occupied --
-92.0135 -91.9998 -91.9818 -91.9580 -26.3438 -20.6153 -20.5881 -20.5870
-20.5618 -11.4100 -11.3831 -11.3094 -11.3091 -11.3074 -11.3023 -11.2984
-11.2984 -11.2891 -11.2856 -11.2855 -11.2849 -11.2823 -11.2803 -11.2739
-11.2724 -11.2585 -11.2580 -11.2496 -11.2369  -9.0124  -9.0000  -8.9839
 -8.9606  -6.6932  -6.6925  -6.6920  -6.6810  -6.6803  -6.6791  -6.6651
 -6.6642  -6.6629  -6.6418  -6.6409  -6.6399  -1.6608  -1.4678  -1.4114
 -1.4089  -1.3705  -1.2316  -1.2028  -1.1739  -1.1381  -1.1005  -1.0474
 -1.0459  -1.0244  -1.0038  -0.9983  -0.9634  -0.9595  -0.9489  -0.9411
 -0.8948  -0.8707  -0.8643  -0.8102  -0.8011  -0.7906  -0.7837  -0.7676
 -0.7574  -0.7374  -0.7256  -0.7119  -0.6990  -0.6927  -0.6851  -0.6813
 -0.6743  -0.6631  -0.6569  -0.6489  -0.6390  -0.6312  -0.6200  -0.6149
 -0.6121  -0.5992  -0.5934  -0.5778  -0.5708  -0.5657  -0.5593  -0.5558
 -0.5429  -0.5353  -0.5308  -0.5281  -0.5134  -0.5098  -0.5081  -0.5010
 -0.4852  -0.4823  -0.4773  -0.4741  -0.4703  -0.4653  -0.4598  -0.4470
 -0.4327  -0.3939  -0.3860  -0.3707  -0.3502  -0.3001  -0.2885  -0.2160

          Ground-State Mulliken Net Atomic Charges

     Atom                 Charge (a.u.)
  ----------------------------------------
      1 C                    -0.070155
      2 C                    -0.261240
      3 S                    -0.136071
      4 C                    -0.047796
      5 H                     0.193272
      6 C                    -0.052078
      7 C                     0.226622
      8 C                     0.231083
      9 C                    -0.073460
     10 C                    -0.043706
     11 O                    -0.334030
     12 O                    -0.344172
     13 C                    -0.083265
     14 H                     0.121170
     15 H                     0.092527
     16 H                     0.092758
     17 C                    -0.088640
     18 H                     0.124831
     19 H                     0.092931
     20 H                     0.089810
     21 C                    -0.290396
     22 S                    -0.100181
     23 C                     0.101569
     24 H                     0.198553
     25 C                    -0.032490
     26 S                     0.091972
     27 C                    -0.210433
     28 C                    -0.038083
     29 C                    -0.090946
     30 S                     0.011354
     31 C                    -0.164606
     32 C                     0.408176
     33 F                    -0.206223
     34 C                     0.444910
     35 O                    -0.460915
     36 O                    -0.300824
     37 C                    -0.058460
     38 H                     0.121621
     39 H                     0.095173
     40 H                     0.095179
     41 H                     0.217420
     42 H                     0.117285
     43 H                     0.114980
     44 H                     0.204977
  ----------------------------------------
  Sum of atomic charges =     0.000000

                    Cartesian Multipole Moments
 -----------------------------------------------------------------
    Charge (ESU x 10^10)
                -0.0000
    Dipole Moment (Debye)
         X       0.6936      Y       2.2550      Z       3.0128
       Tot       3.8266
    Quadrupole Moments (Debye-Ang)
        XX    -193.5761     XY       7.5882     YY    -178.4844
        XZ     -11.7085     YZ     -10.6887     ZZ    -191.8213

 Total job time:  350.17s(wall), 10885.86s(cpu)
        *  Thank you very much for using Q-Chem.  Have a nice day.  *
