 Q-Chem 5.4, Q-Chem, Inc., Pleasanton, CA (2021)
 Q-Chem 5.4.0 for Intel X86 EM64T Linux

User input:
--------------------------------------------------------------
$molecule
0 1
C	0.254945	-8.517702	0.194917
C	-0.680596	-7.641575	-0.335839
S	1.603876	-7.638634	0.954772
C	-0.354585	-6.264785	-0.147576
H	-1.591356	-7.966081	-0.854836
C	0.879999	-6.072714	0.567090
C	1.379534	-4.787049	0.826731
C	-1.124384	-5.162801	-0.618405
C	-0.622407	-3.874817	-0.362333
C	0.612067	-3.683952	0.355575
O	-2.281166	-5.499772	-1.253677
O	2.542174	-4.459055	1.463859
C	3.060718	-5.329063	2.462679
H	3.841678	-4.755694	2.997507
H	3.530361	-6.238095	2.027179
H	2.274283	-5.637262	3.185132
C	-2.916545	-4.572261	-2.124902
H	-3.703073	-5.139743	-2.657438
H	-2.204417	-4.153131	-2.867810
H	-3.399269	-3.739531	-1.568770
C	0.936109	-2.306654	0.540061
S	-1.341474	-2.306501	-0.761887
C	0.000000	-1.435185	0.000000
H	1.844392	-1.978138	1.060690
C	0.000000	0.000000	0.000000
S	0.452792	0.783312	1.507541
C	1.238397	2.145556	0.718873
C	0.452875	0.782898	-1.067872
C	1.145945	1.987956	-0.686410
S	0.333556	0.570531	-2.805516
C	1.204604	2.090290	-3.054530
C	1.556633	2.704929	-1.862551
F	2.220797	3.864903	-1.819088
C	1.430252	2.477345	-4.456084
O	1.052242	1.806648	-5.406510
O	2.099050	3.650663	-4.569225
C	2.351116	4.076808	-5.916207
H	2.895579	5.033821	-5.833064
H	1.401015	4.217390	-6.470168
H	2.962391	3.327969	-6.459293
H	1.699302	2.946693	1.306486
H	0.700788	-9.143623	-0.587067
H	-0.186556	-9.149441	0.974683
H	0.533530	-1.443175	-0.938979
$end

$rem
JOBTYPE		SP
EXCHANGE	HF
CORRELATION	pRIMP2
BASIS		cc-pvtz
METHOD		rimp2
AUX_BASIS	rimp2-cc-pvtz
SOLVENT_METHOD	PCM
PURECART	11111
SYMMETRY	false
MEM_TOTAL	110000
SCF_CONVERGENCE = 6
THRESH=10
GUI = 2
$end

$solvent
dielectric 4.90
$end
--------------------------------------------------------------

             Standard Nuclear Orientation (Angstroms)
    I     Atom           X                Y                Z
 ----------------------------------------------------------------
    1      C       0.2549450000    -8.5177020000     0.1949170000
    2      C      -0.6805960000    -7.6415750000    -0.3358390000
    3      S       1.6038760000    -7.6386340000     0.9547720000
    4      C      -0.3545850000    -6.2647850000    -0.1475760000
    5      H      -1.5913560000    -7.9660810000    -0.8548360000
    6      C       0.8799990000    -6.0727140000     0.5670900000
    7      C       1.3795340000    -4.7870490000     0.8267310000
    8      C      -1.1243840000    -5.1628010000    -0.6184050000
    9      C      -0.6224070000    -3.8748170000    -0.3623330000
   10      C       0.6120670000    -3.6839520000     0.3555750000
   11      O      -2.2811660000    -5.4997720000    -1.2536770000
   12      O       2.5421740000    -4.4590550000     1.4638590000
   13      C       3.0607180000    -5.3290630000     2.4626790000
   14      H       3.8416780000    -4.7556940000     2.9975070000
   15      H       3.5303610000    -6.2380950000     2.0271790000
   16      H       2.2742830000    -5.6372620000     3.1851320000
   17      C      -2.9165450000    -4.5722610000    -2.1249020000
   18      H      -3.7030730000    -5.1397430000    -2.6574380000
   19      H      -2.2044170000    -4.1531310000    -2.8678100000
   20      H      -3.3992690000    -3.7395310000    -1.5687700000
   21      C       0.9361090000    -2.3066540000     0.5400610000
   22      S      -1.3414740000    -2.3065010000    -0.7618870000
   23      C       0.0000000000    -1.4351850000     0.0000000000
   24      H       1.8443920000    -1.9781380000     1.0606900000
   25      C       0.0000000000     0.0000000000     0.0000000000
   26      S       0.4527920000     0.7833120000     1.5075410000
   27      C       1.2383970000     2.1455560000     0.7188730000
   28      C       0.4528750000     0.7828980000    -1.0678720000
   29      C       1.1459450000     1.9879560000    -0.6864100000
   30      S       0.3335560000     0.5705310000    -2.8055160000
   31      C       1.2046040000     2.0902900000    -3.0545300000
   32      C       1.5566330000     2.7049290000    -1.8625510000
   33      F       2.2207970000     3.8649030000    -1.8190880000
   34      C       1.4302520000     2.4773450000    -4.4560840000
   35      O       1.0522420000     1.8066480000    -5.4065100000
   36      O       2.0990500000     3.6506630000    -4.5692250000
   37      C       2.3511160000     4.0768080000    -5.9162070000
   38      H       2.8955790000     5.0338210000    -5.8330640000
   39      H       1.4010150000     4.2173900000    -6.4701680000
   40      H       2.9623910000     3.3279690000    -6.4592930000
   41      H       1.6993020000     2.9466930000     1.3064860000
   42      H       0.7007880000    -9.1436230000    -0.5870670000
   43      H      -0.1865560000    -9.1494410000     0.9746830000
   44      H       0.5335300000    -1.4431750000    -0.9389790000
 ----------------------------------------------------------------

   11   -2755.3293336070      7.19e-07  Convergence criterion met
 Total energy in the final basis set =    -2755.3293336070
        RIMP2         total energy =     -2760.4228263084 a.u.

                    Orbital Energies (a.u.)
 --------------------------------------------------------------

 Alpha MOs
 -- Occupied --
-92.0141 -92.0031 -91.9738 -91.9578 -26.3452 -20.6156 -20.5871 -20.5856
-20.5621 -11.4104 -11.3851 -11.3143 -11.3087 -11.3054 -11.3044 -11.2990
-11.2973 -11.2894 -11.2863 -11.2832 -11.2829 -11.2818 -11.2781 -11.2724
-11.2723 -11.2574 -11.2571 -11.2491 -11.2354  -9.0128  -9.0031  -8.9762
 -8.9604  -6.6936  -6.6929  -6.6925  -6.6841  -6.6833  -6.6822  -6.6573
 -6.6564  -6.6552  -6.6416  -6.6407  -6.6397  -1.6621  -1.4681  -1.4096
 -1.4084  -1.3708  -1.2328  -1.2015  -1.1729  -1.1384  -1.1001  -1.0477
 -1.0448  -1.0248  -1.0023  -0.9963  -0.9643  -0.9573  -0.9483  -0.9418
 -0.8922  -0.8714  -0.8630  -0.8164  -0.7943  -0.7895  -0.7839  -0.7676
 -0.7589  -0.7348  -0.7269  -0.7107  -0.7011  -0.6940  -0.6855  -0.6798
 -0.6747  -0.6660  -0.6549  -0.6480  -0.6349  -0.6302  -0.6194  -0.6149
 -0.6105  -0.6001  -0.5934  -0.5756  -0.5713  -0.5639  -0.5573  -0.5543
 -0.5529  -0.5319  -0.5273  -0.5238  -0.5126  -0.5099  -0.5070  -0.5004
 -0.4856  -0.4819  -0.4758  -0.4746  -0.4721  -0.4669  -0.4590  -0.4451
 -0.4261  -0.3971  -0.3836  -0.3695  -0.3500  -0.3042  -0.2882  -0.2185

          Ground-State Mulliken Net Atomic Charges

     Atom                 Charge (a.u.)
  ----------------------------------------
      1 C                    -0.070013
      2 C                    -0.263808
      3 S                    -0.136352
      4 C                    -0.043579
      5 H                     0.193025
      6 C                    -0.052180
      7 C                     0.222229
      8 C                     0.226020
      9 C                    -0.074829
     10 C                    -0.046378
     11 O                    -0.335774
     12 O                    -0.343859
     13 C                    -0.082495
     14 H                     0.119622
     15 H                     0.092129
     16 H                     0.092721
     17 C                    -0.086737
     18 H                     0.122559
     19 H                     0.092669
     20 H                     0.090024
     21 C                    -0.266955
     22 S                    -0.077587
     23 C                     0.037495
     24 H                     0.209204
     25 C                    -0.061600
     26 S                     0.088965
     27 C                    -0.176428
     28 C                    -0.003395
     29 C                    -0.092049
     30 S                     0.014796
     31 C                    -0.152959
     32 C                     0.392187
     33 F                    -0.204908
     34 C                     0.445843
     35 O                    -0.460858
     36 O                    -0.301070
     37 C                    -0.058356
     38 H                     0.121580
     39 H                     0.095273
     40 H                     0.095255
     41 H                     0.217542
     42 H                     0.116990
     43 H                     0.114403
     44 H                     0.191641
  ----------------------------------------
  Sum of atomic charges =     0.000000

                    Cartesian Multipole Moments
 -----------------------------------------------------------------
    Charge (ESU x 10^10)
                -0.0000
    Dipole Moment (Debye)
         X       1.7753      Y       3.0713      Z       2.3531
       Tot       4.2570
    Quadrupole Moments (Debye-Ang)
        XX    -190.0450     XY      10.1124     YY    -180.5018
        XZ       5.3052     YZ      -5.0579     ZZ    -195.2767

 Total job time:  339.90s(wall), 11084.25s(cpu)
        *  Thank you very much for using Q-Chem.  Have a nice day.  *
