 Q-Chem 5.4, Q-Chem, Inc., Pleasanton, CA (2021)
 Q-Chem 5.4.0 for Intel X86 EM64T Linux

User input:
--------------------------------------------------------------
$molecule
0 1
C	-0.313191	-8.517702	0.070009
C	0.694746	-7.641575	-0.305494
S	-1.762350	-7.638634	0.614924
C	0.340973	-6.264785	-0.176768
H	1.677747	-7.966081	-0.669571
C	-1.000069	-6.072714	0.309600
C	-1.520060	-4.787049	0.525372
C	1.196466	-5.162801	-0.463825
C	0.677639	-3.874817	-0.243888
C	-0.665815	-3.683952	0.240312
O	2.426678	-5.499772	-0.941626
O	-2.755460	-4.459055	1.006468
C	-3.853913	-5.329063	0.761666
H	-4.765607	-4.755694	1.016135
H	-3.822182	-6.238095	1.401368
H	-3.901833	-5.637262	-0.305161
C	3.502489	-4.572261	-0.868342
H	4.416005	-5.139743	-1.128551
H	3.613841	-4.153131	0.154712
H	3.386756	-3.739531	-1.595605
C	-1.015430	-2.306654	0.369957
S	1.445922	-2.306501	-0.537898
C	0.000000	-1.435185	0.000000
H	-1.998088	-1.978138	0.731088
C	0.000000	0.000000	0.000000
S	0.234628	0.873813	1.507541
C	0.640889	2.392969	0.718873
C	0.234815	0.873434	-1.067872
C	0.592377	2.216811	-0.686410
S	0.174526	0.637422	-2.805516
C	0.622551	2.330840	-3.054530
C	0.803505	3.015647	-1.862551
F	1.144815	4.307994	-1.819088
C	0.740334	2.763108	-4.456084
O	0.548793	2.017428	-5.406510
O	1.082665	4.069544	-4.569225
C	1.215848	4.546407	-5.916207
H	1.494066	5.611729	-5.833064
H	0.261736	4.436296	-6.470168
H	2.000108	3.981294	-6.459293
H	0.878739	3.286099	1.306486
H	-0.000738	-9.143623	0.914194
H	-0.626735	-9.149441	-0.769424
H	0.376353	-1.443175	1.012272
$end

$rem
JOBTYPE		SP
EXCHANGE	HF
CORRELATION	pRIMP2
BASIS		cc-pvtz
METHOD		rimp2
AUX_BASIS	rimp2-cc-pvtz
SOLVENT_METHOD	PCM
PURECART	11111
SYMMETRY	false
MEM_TOTAL	110000
SCF_CONVERGENCE = 6
THRESH=10
GUI = 2
$end

$solvent
dielectric 4.90
$end
--------------------------------------------------------------

             Standard Nuclear Orientation (Angstroms)
    I     Atom           X                Y                Z
 ----------------------------------------------------------------
    1      C      -0.3131910000    -8.5177020000     0.0700090000
    2      C       0.6947460000    -7.6415750000    -0.3054940000
    3      S      -1.7623500000    -7.6386340000     0.6149240000
    4      C       0.3409730000    -6.2647850000    -0.1767680000
    5      H       1.6777470000    -7.9660810000    -0.6695710000
    6      C      -1.0000690000    -6.0727140000     0.3096000000
    7      C      -1.5200600000    -4.7870490000     0.5253720000
    8      C       1.1964660000    -5.1628010000    -0.4638250000
    9      C       0.6776390000    -3.8748170000    -0.2438880000
   10      C      -0.6658150000    -3.6839520000     0.2403120000
   11      O       2.4266780000    -5.4997720000    -0.9416260000
   12      O      -2.7554600000    -4.4590550000     1.0064680000
   13      C      -3.8539130000    -5.3290630000     0.7616660000
   14      H      -4.7656070000    -4.7556940000     1.0161350000
   15      H      -3.8221820000    -6.2380950000     1.4013680000
   16      H      -3.9018330000    -5.6372620000    -0.3051610000
   17      C       3.5024890000    -4.5722610000    -0.8683420000
   18      H       4.4160050000    -5.1397430000    -1.1285510000
   19      H       3.6138410000    -4.1531310000     0.1547120000
   20      H       3.3867560000    -3.7395310000    -1.5956050000
   21      C      -1.0154300000    -2.3066540000     0.3699570000
   22      S       1.4459220000    -2.3065010000    -0.5378980000
   23      C       0.0000000000    -1.4351850000     0.0000000000
   24      H      -1.9980880000    -1.9781380000     0.7310880000
   25      C       0.0000000000     0.0000000000     0.0000000000
   26      S       0.2346280000     0.8738130000     1.5075410000
   27      C       0.6408890000     2.3929690000     0.7188730000
   28      C       0.2348150000     0.8734340000    -1.0678720000
   29      C       0.5923770000     2.2168110000    -0.6864100000
   30      S       0.1745260000     0.6374220000    -2.8055160000
   31      C       0.6225510000     2.3308400000    -3.0545300000
   32      C       0.8035050000     3.0156470000    -1.8625510000
   33      F       1.1448150000     4.3079940000    -1.8190880000
   34      C       0.7403340000     2.7631080000    -4.4560840000
   35      O       0.5487930000     2.0174280000    -5.4065100000
   36      O       1.0826650000     4.0695440000    -4.5692250000
   37      C       1.2158480000     4.5464070000    -5.9162070000
   38      H       1.4940660000     5.6117290000    -5.8330640000
   39      H       0.2617360000     4.4362960000    -6.4701680000
   40      H       2.0001080000     3.9812940000    -6.4592930000
   41      H       0.8787390000     3.2860990000     1.3064860000
   42      H      -0.0007380000    -9.1436230000     0.9141940000
   43      H      -0.6267350000    -9.1494410000    -0.7694240000
   44      H       0.3763530000    -1.4431750000     1.0122720000
 ----------------------------------------------------------------

   11   -2755.3409746525      7.59e-07  Convergence criterion met
 Total energy in the final basis set =    -2755.3409746525
        RIMP2         total energy =     -2760.4287682399 a.u.

                    Orbital Energies (a.u.)
 --------------------------------------------------------------

 Alpha MOs
 -- Occupied --
-92.0166 -91.9981 -91.9776 -91.9575 -26.3435 -20.6149 -20.5871 -20.5863
-20.5614 -11.4095 -11.3826 -11.3122 -11.3087 -11.3063 -11.3002 -11.2990
-11.2979 -11.2889 -11.2853 -11.2840 -11.2827 -11.2825 -11.2790 -11.2719
-11.2718 -11.2576 -11.2561 -11.2490 -11.2354  -9.0154  -8.9981  -8.9797
 -8.9601  -6.6962  -6.6956  -6.6950  -6.6791  -6.6784  -6.6773  -6.6608
 -6.6599  -6.6586  -6.6414  -6.6404  -6.6394  -1.6606  -1.4674  -1.4099
 -1.4086  -1.3701  -1.2294  -1.2023  -1.1731  -1.1379  -1.0992  -1.0460
 -1.0439  -1.0250  -1.0033  -0.9962  -0.9633  -0.9581  -0.9480  -0.9407
 -0.8929  -0.8686  -0.8660  -0.8149  -0.7963  -0.7891  -0.7842  -0.7676
 -0.7567  -0.7377  -0.7255  -0.7167  -0.6967  -0.6867  -0.6846  -0.6795
 -0.6740  -0.6607  -0.6557  -0.6483  -0.6348  -0.6297  -0.6194  -0.6148
 -0.6109  -0.5993  -0.5916  -0.5765  -0.5715  -0.5633  -0.5595  -0.5560
 -0.5477  -0.5328  -0.5312  -0.5241  -0.5125  -0.5081  -0.5070  -0.5011
 -0.4854  -0.4813  -0.4761  -0.4738  -0.4694  -0.4681  -0.4606  -0.4462
 -0.4241  -0.3987  -0.3848  -0.3695  -0.3515  -0.3010  -0.2891  -0.2198

          Ground-State Mulliken Net Atomic Charges

     Atom                 Charge (a.u.)
  ----------------------------------------
      1 C                    -0.069890
      2 C                    -0.263938
      3 S                    -0.137421
      4 C                    -0.043105
      5 H                     0.192875
      6 C                    -0.052702
      7 C                     0.225248
      8 C                     0.222362
      9 C                    -0.071961
     10 C                    -0.044157
     11 O                    -0.335047
     12 O                    -0.343475
     13 C                    -0.082683
     14 H                     0.119785
     15 H                     0.092030
     16 H                     0.093157
     17 C                    -0.086810
     18 H                     0.123127
     19 H                     0.091689
     20 H                     0.091030
     21 C                    -0.272296
     22 S                    -0.071145
     23 C                     0.074905
     24 H                     0.203528
     25 C                    -0.063624
     26 S                     0.090899
     27 C                    -0.186938
     28 C                    -0.022207
     29 C                    -0.095643
     30 S                     0.015364
     31 C                    -0.156079
     32 C                     0.395779
     33 F                    -0.206945
     34 C                     0.445085
     35 O                    -0.460317
     36 O                    -0.300755
     37 C                    -0.058444
     38 H                     0.121307
     39 H                     0.095166
     40 H                     0.095160
     41 H                     0.218971
     42 H                     0.116590
     43 H                     0.114519
     44 H                     0.187004
  ----------------------------------------
  Sum of atomic charges =     0.000000

                    Cartesian Multipole Moments
 -----------------------------------------------------------------
    Charge (ESU x 10^10)
                -0.0000
    Dipole Moment (Debye)
         X       1.0625      Y       3.2038      Z       3.4191
       Tot       4.8045
    Quadrupole Moments (Debye-Ang)
        XX    -182.3987     XY       0.4811     YY    -178.1746
        XZ      -2.2321     YZ      -5.8060     ZZ    -206.0604

 Total job time:  370.30s(wall), 11424.30s(cpu)
        *  Thank you very much for using Q-Chem.  Have a nice day.  *
