 Q-Chem 5.4, Q-Chem, Inc., Pleasanton, CA (2021)
 Q-Chem 5.4.0 for Intel X86 EM64T Linux

User input:
--------------------------------------------------------------
$molecule
0 1
C	0.172904	-8.517702	0.270358
C	-0.524688	-7.641575	-0.548363
S	1.180599	-7.638634	1.445750
C	-0.282727	-6.264785	-0.259951
H	-1.203014	-7.966081	-1.347559
C	0.632972	-6.072714	0.833868
C	1.013580	-4.787049	1.248701
C	-0.845068	-5.162801	-0.965673
C	-0.460946	-3.874817	-0.553357
C	0.453541	-3.683952	0.543470
O	-1.714812	-5.499772	-1.958276
O	1.888193	-4.459055	2.245053
C	2.033848	-5.329063	3.360989
H	2.584788	-4.755694	4.130667
H	2.624118	-6.238095	3.112380
H	1.047748	-5.637262	3.770895
C	-2.013896	-4.572261	-2.994272
H	-2.570853	-5.139743	-3.763700
H	-1.090625	-4.153131	-3.448815
H	-2.657717	-3.739531	-2.636780
C	0.694943	-2.306654	0.827659
S	-0.999993	-2.306501	-1.174750
C	-0.000000	-1.435185	-0.000000
H	1.370385	-1.978138	1.627541
C	0.000000	0.000000	0.000000
S	0.783786	0.451972	1.507541
C	2.145261	1.238908	0.718873
C	0.783650	0.451572	-1.067872
C	1.986396	1.148648	-0.686410
S	0.574133	0.327317	-2.805516
C	2.088363	1.207943	-3.054530
C	2.700548	1.564221	-1.862551
F	3.855718	2.236706	-1.819088
C	2.477307	1.430318	-4.456084
O	1.814592	1.038482	-5.406510
O	3.643162	2.112042	-4.569225
C	4.074530	2.355061	-5.916207
H	5.024556	2.911627	-5.833064
H	3.322010	2.951860	-6.470168
H	4.229490	1.400910	-6.459293
H	2.944986	1.702260	1.306486
H	0.859314	-9.143623	-0.311979
H	-0.508666	-9.149441	0.852097
H	0.822504	-1.443175	-0.699874
$end

$rem
JOBTYPE		SP
EXCHANGE	HF
CORRELATION	pRIMP2
BASIS		cc-pvtz
METHOD		rimp2
AUX_BASIS	rimp2-cc-pvtz
SOLVENT_METHOD	PCM
PURECART	11111
SYMMETRY	false
MEM_TOTAL	110000
SCF_CONVERGENCE = 6
THRESH=10
GUI = 2
$end

$solvent
dielectric 4.90
$end
--------------------------------------------------------------

             Standard Nuclear Orientation (Angstroms)
    I     Atom           X                Y                Z
 ----------------------------------------------------------------
    1      C       0.1729040000    -8.5177020000     0.2703580000
    2      C      -0.5246880000    -7.6415750000    -0.5483630000
    3      S       1.1805990000    -7.6386340000     1.4457500000
    4      C      -0.2827270000    -6.2647850000    -0.2599510000
    5      H      -1.2030140000    -7.9660810000    -1.3475590000
    6      C       0.6329720000    -6.0727140000     0.8338680000
    7      C       1.0135800000    -4.7870490000     1.2487010000
    8      C      -0.8450680000    -5.1628010000    -0.9656730000
    9      C      -0.4609460000    -3.8748170000    -0.5533570000
   10      C       0.4535410000    -3.6839520000     0.5434700000
   11      O      -1.7148120000    -5.4997720000    -1.9582760000
   12      O       1.8881930000    -4.4590550000     2.2450530000
   13      C       2.0338480000    -5.3290630000     3.3609890000
   14      H       2.5847880000    -4.7556940000     4.1306670000
   15      H       2.6241180000    -6.2380950000     3.1123800000
   16      H       1.0477480000    -5.6372620000     3.7708950000
   17      C      -2.0138960000    -4.5722610000    -2.9942720000
   18      H      -2.5708530000    -5.1397430000    -3.7637000000
   19      H      -1.0906250000    -4.1531310000    -3.4488150000
   20      H      -2.6577170000    -3.7395310000    -2.6367800000
   21      C       0.6949430000    -2.3066540000     0.8276590000
   22      S      -0.9999930000    -2.3065010000    -1.1747500000
   23      C       0.0000000000    -1.4351850000     0.0000000000
   24      H       1.3703850000    -1.9781380000     1.6275410000
   25      C       0.0000000000     0.0000000000     0.0000000000
   26      S       0.7837860000     0.4519720000     1.5075410000
   27      C       2.1452610000     1.2389080000     0.7188730000
   28      C       0.7836500000     0.4515720000    -1.0678720000
   29      C       1.9863960000     1.1486480000    -0.6864100000
   30      S       0.5741330000     0.3273170000    -2.8055160000
   31      C       2.0883630000     1.2079430000    -3.0545300000
   32      C       2.7005480000     1.5642210000    -1.8625510000
   33      F       3.8557180000     2.2367060000    -1.8190880000
   34      C       2.4773070000     1.4303180000    -4.4560840000
   35      O       1.8145920000     1.0384820000    -5.4065100000
   36      O       3.6431620000     2.1120420000    -4.5692250000
   37      C       4.0745300000     2.3550610000    -5.9162070000
   38      H       5.0245560000     2.9116270000    -5.8330640000
   39      H       3.3220100000     2.9518600000    -6.4701680000
   40      H       4.2294900000     1.4009100000    -6.4592930000
   41      H       2.9449860000     1.7022600000     1.3064860000
   42      H       0.8593140000    -9.1436230000    -0.3119790000
   43      H      -0.5086660000    -9.1494410000     0.8520970000
   44      H       0.8225040000    -1.4431750000    -0.6998740000
 ----------------------------------------------------------------

   11   -2755.2601135355      9.00e-07  Convergence criterion met
 Total energy in the final basis set =    -2755.2601135355
        RIMP2         total energy =     -2760.3704209842 a.u.

                    Orbital Energies (a.u.)
 --------------------------------------------------------------

 Alpha MOs
 -- Occupied --
-92.0176 -92.0129 -91.9703 -91.9547 -26.3475 -20.6165 -20.5864 -20.5829
-20.5629 -11.4118 -11.3884 -11.3336 -11.3180 -11.3075 -11.3008 -11.2999
-11.2906 -11.2900 -11.2824 -11.2817 -11.2800 -11.2764 -11.2752 -11.2723
-11.2677 -11.2547 -11.2502 -11.2460 -11.2281  -9.0170  -9.0124  -8.9730
 -8.9574  -6.6976  -6.6967  -6.6966  -6.6933  -6.6925  -6.6915  -6.6541
 -6.6533  -6.6521  -6.6386  -6.6377  -6.6367  -1.6645  -1.4691  -1.4085
 -1.4060  -1.3718  -1.2479  -1.1996  -1.1713  -1.1426  -1.0992  -1.0516
 -1.0428  -1.0299  -1.0004  -0.9941  -0.9685  -0.9562  -0.9482  -0.9414
 -0.8905  -0.8755  -0.8562  -0.8222  -0.7969  -0.7863  -0.7814  -0.7659
 -0.7589  -0.7351  -0.7293  -0.7140  -0.7040  -0.6923  -0.6866  -0.6808
 -0.6756  -0.6700  -0.6535  -0.6467  -0.6370  -0.6308  -0.6166  -0.6149
 -0.6091  -0.6041  -0.5928  -0.5801  -0.5694  -0.5631  -0.5582  -0.5548
 -0.5466  -0.5331  -0.5283  -0.5208  -0.5145  -0.5098  -0.5061  -0.4970
 -0.4854  -0.4846  -0.4773  -0.4742  -0.4706  -0.4614  -0.4557  -0.4427
 -0.4278  -0.3969  -0.3757  -0.3693  -0.3469  -0.3126  -0.2850  -0.2109

          Ground-State Mulliken Net Atomic Charges

     Atom                 Charge (a.u.)
  ----------------------------------------
      1 C                    -0.068335
      2 C                    -0.285089
      3 S                    -0.144812
      4 C                    -0.037433
      5 H                     0.190400
      6 C                    -0.054689
      7 C                     0.225234
      8 C                     0.214243
      9 C                    -0.059331
     10 C                    -0.065561
     11 O                    -0.336240
     12 O                    -0.345264
     13 C                    -0.082719
     14 H                     0.118743
     15 H                     0.092485
     16 H                     0.092832
     17 C                    -0.087425
     18 H                     0.122044
     19 H                     0.091258
     20 H                     0.089870
     21 C                    -0.254593
     22 S                    -0.103625
     23 C                     0.064944
     24 H                     0.202426
     25 C                    -0.165492
     26 S                     0.111688
     27 C                    -0.143105
     28 C                     0.057729
     29 C                    -0.120416
     30 S                     0.067110
     31 C                    -0.156209
     32 C                     0.400774
     33 F                    -0.203972
     34 C                     0.448433
     35 O                    -0.461908
     36 O                    -0.301303
     37 C                    -0.058134
     38 H                     0.121744
     39 H                     0.095429
     40 H                     0.095500
     41 H                     0.222785
     42 H                     0.113981
     43 H                     0.111503
     44 H                     0.184500
  ----------------------------------------
  Sum of atomic charges =     0.000000

                    Cartesian Multipole Moments
 -----------------------------------------------------------------
    Charge (ESU x 10^10)
                -0.0000
    Dipole Moment (Debye)
         X       4.0763      Y       3.9446      Z       2.2548
       Tot       6.1041
    Quadrupole Moments (Debye-Ang)
        XX    -186.4230     XY       9.9769     YY    -200.4502
        XZ      -0.4410     YZ      -1.4575     ZZ    -187.7360

 Total job time:  328.28s(wall), 10694.30s(cpu)
        *  Thank you very much for using Q-Chem.  Have a nice day.  *
