 Q-Chem 5.4, Q-Chem, Inc., Pleasanton, CA (2021)
 Q-Chem 5.4.0 for Intel X86 EM64T Linux

User input:
--------------------------------------------------------------
$molecule
0 1
C	-0.194917	-8.517702	0.254945
C	0.335839	-7.641575	-0.680596
S	-0.954772	-7.638634	1.603876
C	0.147576	-6.264785	-0.354585
H	0.854836	-7.966081	-1.591356
C	-0.567090	-6.072714	0.879999
C	-0.826731	-4.787049	1.379534
C	0.618405	-5.162801	-1.124384
C	0.362333	-3.874817	-0.622407
C	-0.355575	-3.683952	0.612067
O	1.253677	-5.499772	-2.281166
O	-1.463859	-4.459055	2.542174
C	-2.462679	-5.329063	3.060718
H	-2.997507	-4.755694	3.841678
H	-2.027179	-6.238095	3.530361
H	-3.185132	-5.637262	2.274283
C	2.124902	-4.572261	-2.916545
H	2.657438	-5.139743	-3.703073
H	2.867810	-4.153131	-2.204417
H	1.568770	-3.739531	-3.399269
C	-0.540061	-2.306654	0.936109
S	0.761887	-2.306501	-1.341474
C	0.000000	-1.435185	0.000000
H	-1.060690	-1.978138	1.844392
C	0.000000	0.000000	0.000000
S	0.693394	0.581209	1.507541
C	1.897536	1.592607	0.718873
C	0.693330	0.580791	-1.067872
C	1.756758	1.476132	-0.686410
S	0.508573	0.422041	-2.805516
C	1.846879	1.552232	-3.054530
C	2.387897	2.009402	-1.862551
F	3.408741	2.872264	-1.819088
C	2.191300	1.838768	-4.456084
O	1.606694	1.337806	-5.406510
O	3.221062	2.712584	-4.569225
C	3.603677	3.026817	-5.916207
H	4.442623	3.739898	-5.833064
H	2.758956	3.483875	-6.470168
H	3.921969	2.114070	-6.459293
H	2.604650	2.187790	1.306486
H	0.587067	-9.143623	0.700788
H	-0.974683	-9.149441	-0.186556
H	0.938979	-1.443175	0.533530
$end

$rem
JOBTYPE		SP
EXCHANGE	HF
CORRELATION	pRIMP2
BASIS		cc-pvtz
METHOD		rimp2
AUX_BASIS	rimp2-cc-pvtz
SOLVENT_METHOD	PCM
PURECART	11111
SYMMETRY	false
MEM_TOTAL	110000
SCF_CONVERGENCE = 6
THRESH=10
GUI = 2
$end

$solvent
dielectric 4.90
$end
--------------------------------------------------------------

             Standard Nuclear Orientation (Angstroms)
    I     Atom           X                Y                Z
 ----------------------------------------------------------------
    1      C      -0.1949170000    -8.5177020000     0.2549450000
    2      C       0.3358390000    -7.6415750000    -0.6805960000
    3      S      -0.9547720000    -7.6386340000     1.6038760000
    4      C       0.1475760000    -6.2647850000    -0.3545850000
    5      H       0.8548360000    -7.9660810000    -1.5913560000
    6      C      -0.5670900000    -6.0727140000     0.8799990000
    7      C      -0.8267310000    -4.7870490000     1.3795340000
    8      C       0.6184050000    -5.1628010000    -1.1243840000
    9      C       0.3623330000    -3.8748170000    -0.6224070000
   10      C      -0.3555750000    -3.6839520000     0.6120670000
   11      O       1.2536770000    -5.4997720000    -2.2811660000
   12      O      -1.4638590000    -4.4590550000     2.5421740000
   13      C      -2.4626790000    -5.3290630000     3.0607180000
   14      H      -2.9975070000    -4.7556940000     3.8416780000
   15      H      -2.0271790000    -6.2380950000     3.5303610000
   16      H      -3.1851320000    -5.6372620000     2.2742830000
   17      C       2.1249020000    -4.5722610000    -2.9165450000
   18      H       2.6574380000    -5.1397430000    -3.7030730000
   19      H       2.8678100000    -4.1531310000    -2.2044170000
   20      H       1.5687700000    -3.7395310000    -3.3992690000
   21      C      -0.5400610000    -2.3066540000     0.9361090000
   22      S       0.7618870000    -2.3065010000    -1.3414740000
   23      C       0.0000000000    -1.4351850000     0.0000000000
   24      H      -1.0606900000    -1.9781380000     1.8443920000
   25      C       0.0000000000     0.0000000000     0.0000000000
   26      S       0.6933940000     0.5812090000     1.5075410000
   27      C       1.8975360000     1.5926070000     0.7188730000
   28      C       0.6933300000     0.5807910000    -1.0678720000
   29      C       1.7567580000     1.4761320000    -0.6864100000
   30      S       0.5085730000     0.4220410000    -2.8055160000
   31      C       1.8468790000     1.5522320000    -3.0545300000
   32      C       2.3878970000     2.0094020000    -1.8625510000
   33      F       3.4087410000     2.8722640000    -1.8190880000
   34      C       2.1913000000     1.8387680000    -4.4560840000
   35      O       1.6066940000     1.3378060000    -5.4065100000
   36      O       3.2210620000     2.7125840000    -4.5692250000
   37      C       3.6036770000     3.0268170000    -5.9162070000
   38      H       4.4426230000     3.7398980000    -5.8330640000
   39      H       2.7589560000     3.4838750000    -6.4701680000
   40      H       3.9219690000     2.1140700000    -6.4592930000
   41      H       2.6046500000     2.1877900000     1.3064860000
   42      H       0.5870670000    -9.1436230000     0.7007880000
   43      H      -0.9746830000    -9.1494410000    -0.1865560000
   44      H       0.9389790000    -1.4431750000     0.5335300000
 ----------------------------------------------------------------

   11   -2755.2905604887      8.03e-07  Convergence criterion met
 Total energy in the final basis set =    -2755.2905604887
        RIMP2         total energy =     -2760.3946575618 a.u.

                    Orbital Energies (a.u.)
 --------------------------------------------------------------

 Alpha MOs
 -- Occupied --
-92.0077 -92.0007 -91.9741 -91.9578 -26.3444 -20.6155 -20.5867 -20.5862
-20.5621 -11.4102 -11.3840 -11.3227 -11.3080 -11.3067 -11.3060 -11.2983
-11.2899 -11.2893 -11.2871 -11.2834 -11.2826 -11.2794 -11.2758 -11.2720
-11.2666 -11.2575 -11.2559 -11.2495 -11.2367  -9.0081  -9.0009  -8.9765
 -8.9604  -6.6888  -6.6880  -6.6876  -6.6818  -6.6810  -6.6800  -6.6575
 -6.6567  -6.6553  -6.6416  -6.6407  -6.6397  -1.6615  -1.4680  -1.4097
 -1.4084  -1.3707  -1.2394  -1.1996  -1.1736  -1.1406  -1.0984  -1.0491
 -1.0437  -1.0280  -1.0018  -0.9944  -0.9658  -0.9560  -0.9491  -0.9417
 -0.8926  -0.8704  -0.8597  -0.8187  -0.7937  -0.7881  -0.7822  -0.7681
 -0.7568  -0.7378  -0.7264  -0.7154  -0.6957  -0.6919  -0.6853  -0.6808
 -0.6745  -0.6646  -0.6551  -0.6480  -0.6363  -0.6303  -0.6197  -0.6150
 -0.6107  -0.6012  -0.5919  -0.5777  -0.5708  -0.5663  -0.5592  -0.5566
 -0.5420  -0.5329  -0.5311  -0.5251  -0.5130  -0.5120  -0.5070  -0.5006
 -0.4847  -0.4817  -0.4767  -0.4735  -0.4688  -0.4638  -0.4549  -0.4459
 -0.4284  -0.3892  -0.3846  -0.3685  -0.3533  -0.3002  -0.2872  -0.2159

          Ground-State Mulliken Net Atomic Charges

     Atom                 Charge (a.u.)
  ----------------------------------------
      1 C                    -0.070356
      2 C                    -0.259635
      3 S                    -0.136727
      4 C                    -0.048626
      5 H                     0.193483
      6 C                    -0.050134
      7 C                     0.216450
      8 C                     0.225706
      9 C                    -0.073813
     10 C                    -0.022549
     11 O                    -0.334794
     12 O                    -0.343429
     13 C                    -0.082767
     14 H                     0.119584
     15 H                     0.091818
     16 H                     0.092984
     17 C                    -0.088964
     18 H                     0.123729
     19 H                     0.091221
     20 H                     0.092444
     21 C                    -0.338485
     22 S                    -0.094988
     23 C                     0.125408
     24 H                     0.200787
     25 C                    -0.080273
     26 S                     0.073042
     27 C                    -0.155529
     28 C                    -0.035000
     29 C                    -0.089054
     30 S                     0.041509
     31 C                    -0.151690
     32 C                     0.397509
     33 F                    -0.206424
     34 C                     0.445790
     35 O                    -0.460648
     36 O                    -0.300794
     37 C                    -0.058389
     38 H                     0.121481
     39 H                     0.095355
     40 H                     0.095078
     41 H                     0.219071
     42 H                     0.117280
     43 H                     0.115029
     44 H                     0.188310
  ----------------------------------------
  Sum of atomic charges =     0.000000

                    Cartesian Multipole Moments
 -----------------------------------------------------------------
    Charge (ESU x 10^10)
                 0.0000
    Dipole Moment (Debye)
         X       3.2135      Y       2.2090      Z       2.6574
       Tot       4.7188
    Quadrupole Moments (Debye-Ang)
        XX    -181.4448     XY       6.4634     YY    -184.4843
        XZ     -14.8607     YZ      -1.0274     ZZ    -197.3611

 Total job time:  327.23s(wall), 10648.11s(cpu)
        *  Thank you very much for using Q-Chem.  Have a nice day.  *
