 Q-Chem 5.4, Q-Chem, Inc., Pleasanton, CA (2021)
 Q-Chem 5.4.0 for Intel X86 EM64T Linux

User input:
--------------------------------------------------------------
$molecule
0 1
C	0.217225	-8.517702	0.236226
C	-0.611939	-7.641575	-0.448921
S	1.413715	-7.638634	1.218777
C	-0.323572	-6.264785	-0.206907
H	-1.418739	-7.966081	-1.118185
C	0.768156	-6.072714	0.711285
C	1.215016	-4.787049	1.053725
C	-0.999917	-5.162801	-0.804258
C	-0.550033	-3.874817	-0.464908
C	0.541024	-3.683952	0.456457
O	-2.028811	-5.499772	-1.630752
O	2.249357	-4.459055	1.883064
C	2.586579	-5.329063	2.956754
H	3.262802	-4.755694	3.619069
H	3.124711	-6.238095	2.609423
H	1.686639	-5.637262	3.531667
C	-2.503251	-4.572261	-2.599073
H	-3.185356	-5.139743	-3.260097
H	-1.672937	-4.153131	-3.207034
H	-3.075213	-3.739531	-2.135214
C	0.828107	-2.306654	0.694410
S	-1.188794	-2.306501	-0.983256
C	-0.000000	-1.435185	-0.000000
H	1.632185	-1.978138	1.364851
C	0.000000	0.000000	0.000000
S	0.309893	0.850039	1.507541
C	0.847011	2.328006	0.718873
C	0.310046	0.849645	-1.067872
C	0.783331	2.156746	-0.686410
S	0.229416	0.619785	-2.805516
C	0.823328	2.267711	-3.054530
C	1.063278	2.934142	-1.862551
F	1.515925	4.191824	-1.819088
C	0.978337	2.688069	-4.456084
O	0.722535	1.961921	-5.406510
O	1.433229	3.959697	-4.569225
C	1.607467	4.423139	-5.916207
H	1.977475	5.460158	-5.833064
H	0.647388	4.396602	-6.470168
H	2.339490	3.791823	-6.459293
H	1.161798	3.197007	1.306486
H	0.792084	-9.143623	-0.456457
H	-0.352973	-9.149441	0.927480
H	0.688477	-1.443175	-0.832067
$end

$rem
JOBTYPE		SP
EXCHANGE	HF
CORRELATION	pRIMP2
BASIS		cc-pvtz
METHOD		rimp2
AUX_BASIS	rimp2-cc-pvtz
SOLVENT_METHOD	PCM
PURECART	11111
SYMMETRY	false
MEM_TOTAL	110000
SCF_CONVERGENCE = 6
THRESH=10
GUI = 2
$end

$solvent
dielectric 4.90
$end
--------------------------------------------------------------

             Standard Nuclear Orientation (Angstroms)
    I     Atom           X                Y                Z
 ----------------------------------------------------------------
    1      C       0.2172250000    -8.5177020000     0.2362260000
    2      C      -0.6119390000    -7.6415750000    -0.4489210000
    3      S       1.4137150000    -7.6386340000     1.2187770000
    4      C      -0.3235720000    -6.2647850000    -0.2069070000
    5      H      -1.4187390000    -7.9660810000    -1.1181850000
    6      C       0.7681560000    -6.0727140000     0.7112850000
    7      C       1.2150160000    -4.7870490000     1.0537250000
    8      C      -0.9999170000    -5.1628010000    -0.8042580000
    9      C      -0.5500330000    -3.8748170000    -0.4649080000
   10      C       0.5410240000    -3.6839520000     0.4564570000
   11      O      -2.0288110000    -5.4997720000    -1.6307520000
   12      O       2.2493570000    -4.4590550000     1.8830640000
   13      C       2.5865790000    -5.3290630000     2.9567540000
   14      H       3.2628020000    -4.7556940000     3.6190690000
   15      H       3.1247110000    -6.2380950000     2.6094230000
   16      H       1.6866390000    -5.6372620000     3.5316670000
   17      C      -2.5032510000    -4.5722610000    -2.5990730000
   18      H      -3.1853560000    -5.1397430000    -3.2600970000
   19      H      -1.6729370000    -4.1531310000    -3.2070340000
   20      H      -3.0752130000    -3.7395310000    -2.1352140000
   21      C       0.8281070000    -2.3066540000     0.6944100000
   22      S      -1.1887940000    -2.3065010000    -0.9832560000
   23      C       0.0000000000    -1.4351850000     0.0000000000
   24      H       1.6321850000    -1.9781380000     1.3648510000
   25      C       0.0000000000     0.0000000000     0.0000000000
   26      S       0.3098930000     0.8500390000     1.5075410000
   27      C       0.8470110000     2.3280060000     0.7188730000
   28      C       0.3100460000     0.8496450000    -1.0678720000
   29      C       0.7833310000     2.1567460000    -0.6864100000
   30      S       0.2294160000     0.6197850000    -2.8055160000
   31      C       0.8233280000     2.2677110000    -3.0545300000
   32      C       1.0632780000     2.9341420000    -1.8625510000
   33      F       1.5159250000     4.1918240000    -1.8190880000
   34      C       0.9783370000     2.6880690000    -4.4560840000
   35      O       0.7225350000     1.9619210000    -5.4065100000
   36      O       1.4332290000     3.9596970000    -4.5692250000
   37      C       1.6074670000     4.4231390000    -5.9162070000
   38      H       1.9774750000     5.4601580000    -5.8330640000
   39      H       0.6473880000     4.3966020000    -6.4701680000
   40      H       2.3394900000     3.7918230000    -6.4592930000
   41      H       1.1617980000     3.1970070000     1.3064860000
   42      H       0.7920840000    -9.1436230000    -0.4564570000
   43      H      -0.3529730000    -9.1494410000     0.9274800000
   44      H       0.6884770000    -1.4431750000    -0.8320670000
 ----------------------------------------------------------------

   11   -2755.3391008169      7.45e-07  Convergence criterion met
 Total energy in the final basis set =    -2755.3391008169
        RIMP2         total energy =     -2760.4306731735 a.u.

                    Orbital Energies (a.u.)
 --------------------------------------------------------------

 Alpha MOs
 -- Occupied --
-92.0145 -92.0002 -91.9766 -91.9585 -26.3441 -20.6153 -20.5875 -20.5867
-20.5617 -11.4100 -11.3836 -11.3093 -11.3084 -11.3073 -11.3037 -11.2994
-11.2984 -11.2891 -11.2856 -11.2838 -11.2832 -11.2831 -11.2806 -11.2734
-11.2729 -11.2585 -11.2583 -11.2499 -11.2371  -9.0132  -9.0003  -8.9790
 -8.9611  -6.6939  -6.6933  -6.6929  -6.6813  -6.6805  -6.6794  -6.6601
 -6.6592  -6.6579  -6.6423  -6.6414  -6.6404  -1.6612  -1.4677  -1.4103
 -1.4091  -1.3704  -1.2310  -1.2022  -1.1738  -1.1376  -1.1007  -1.0472
 -1.0453  -1.0241  -1.0034  -0.9972  -0.9639  -0.9574  -0.9487  -0.9418
 -0.8933  -0.8709  -0.8641  -0.8158  -0.7933  -0.7898  -0.7848  -0.7684
 -0.7583  -0.7356  -0.7260  -0.7096  -0.7005  -0.6947  -0.6852  -0.6804
 -0.6743  -0.6655  -0.6555  -0.6486  -0.6351  -0.6310  -0.6202  -0.6152
 -0.6108  -0.5996  -0.5934  -0.5761  -0.5711  -0.5644  -0.5583  -0.5556
 -0.5519  -0.5318  -0.5289  -0.5250  -0.5134  -0.5096  -0.5075  -0.5010
 -0.4859  -0.4806  -0.4768  -0.4741  -0.4726  -0.4667  -0.4602  -0.4460
 -0.4286  -0.3967  -0.3847  -0.3702  -0.3501  -0.3012  -0.2890  -0.2190

          Ground-State Mulliken Net Atomic Charges

     Atom                 Charge (a.u.)
  ----------------------------------------
      1 C                    -0.070213
      2 C                    -0.259072
      3 S                    -0.135062
      4 C                    -0.045171
      5 H                     0.193691
      6 C                    -0.051726
      7 C                     0.220928
      8 C                     0.231146
      9 C                    -0.078552
     10 C                    -0.049631
     11 O                    -0.335332
     12 O                    -0.343762
     13 C                    -0.082558
     14 H                     0.119884
     15 H                     0.092101
     16 H                     0.092808
     17 C                    -0.087429
     18 H                     0.123112
     19 H                     0.093324
     20 H                     0.090211
     21 C                    -0.263580
     22 S                    -0.072694
     23 C                     0.038922
     24 H                     0.208825
     25 C                    -0.037560
     26 S                     0.086512
     27 C                    -0.190215
     28 C                    -0.012940
     29 C                    -0.099829
     30 S                     0.006985
     31 C                    -0.154138
     32 C                     0.395120
     33 F                    -0.205851
     34 C                     0.445393
     35 O                    -0.460649
     36 O                    -0.300888
     37 C                    -0.058438
     38 H                     0.121475
     39 H                     0.095223
     40 H                     0.095142
     41 H                     0.216970
     42 H                     0.117576
     43 H                     0.115129
     44 H                     0.194813
  ----------------------------------------
  Sum of atomic charges =     0.000000

                    Cartesian Multipole Moments
 -----------------------------------------------------------------
    Charge (ESU x 10^10)
                -0.0000
    Dipole Moment (Debye)
         X       1.2041      Y       2.5596      Z       2.4342
       Tot       3.7319
    Quadrupole Moments (Debye-Ang)
        XX    -195.1773     XY       7.9776     YY    -175.9922
        XZ       5.6502     YZ      -4.8836     ZZ    -192.5625

 Total job time:  347.25s(wall), 10868.17s(cpu)
        *  Thank you very much for using Q-Chem.  Have a nice day.  *
