 Q-Chem 5.4, Q-Chem, Inc., Pleasanton, CA (2021)
 Q-Chem 5.4.0 for Intel X86 EM64T Linux

User input:
--------------------------------------------------------------
$molecule
0 1
C	-0.306235	-8.517702	-0.095966
C	0.754415	-7.641575	0.082807
S	-1.833702	-7.638634	-0.348635
C	0.383675	-6.264785	0.017401
H	1.787757	-7.966081	0.259008
C	-1.020885	-6.072714	-0.231913
C	-1.579097	-4.787049	-0.305044
C	1.268082	-5.162801	0.196549
C	0.708796	-3.874817	0.127606
C	-0.696769	-3.683952	-0.124792
O	2.572378	-5.499772	0.397867
O	-2.889532	-4.459055	-0.506103
C	-3.718420	-5.329063	-1.267335
H	-4.635204	-4.755694	-1.502804
H	-4.010790	-6.238095	-0.697471
H	-3.226506	-5.637262	-2.215194
C	3.467415	-4.572261	0.999238
H	4.388648	-5.139743	1.230649
H	3.052323	-4.153131	1.940905
H	3.730819	-3.739531	0.311543
C	-1.064366	-2.306654	-0.187323
S	1.521154	-2.306501	0.257128
C	0.000000	-1.435185	0.000000
H	-2.095939	-1.978138	-0.365903
C	0.000000	0.000000	0.000000
S	0.234628	0.873813	1.507541
C	0.640889	2.392969	0.718873
C	0.234815	0.873434	-1.067872
C	0.592377	2.216811	-0.686410
S	0.174526	0.637422	-2.805516
C	0.622551	2.330840	-3.054530
C	0.803505	3.015647	-1.862551
F	1.144815	4.307994	-1.819088
C	0.740334	2.763108	-4.456084
O	0.548793	2.017428	-5.406510
O	1.082665	4.069544	-4.569225
C	1.215848	4.546407	-5.916207
H	1.494066	5.611729	-5.833064
H	0.261736	4.436296	-6.470168
H	2.000108	3.981294	-6.459293
H	0.878739	3.286099	1.306486
H	-0.457736	-9.143623	0.791346
H	-0.158056	-9.149441	-0.979708
H	-0.180205	-1.443175	1.064830
$end

$rem
JOBTYPE		SP
EXCHANGE	HF
CORRELATION	pRIMP2
BASIS		cc-pvtz
METHOD		rimp2
AUX_BASIS	rimp2-cc-pvtz
SOLVENT_METHOD	PCM
PURECART	11111
SYMMETRY	false
MEM_TOTAL	110000
SCF_CONVERGENCE = 6
THRESH=10
GUI = 2
$end

$solvent
dielectric 4.90
$end
--------------------------------------------------------------

             Standard Nuclear Orientation (Angstroms)
    I     Atom           X                Y                Z
 ----------------------------------------------------------------
    1      C      -0.3062350000    -8.5177020000    -0.0959660000
    2      C       0.7544150000    -7.6415750000     0.0828070000
    3      S      -1.8337020000    -7.6386340000    -0.3486350000
    4      C       0.3836750000    -6.2647850000     0.0174010000
    5      H       1.7877570000    -7.9660810000     0.2590080000
    6      C      -1.0208850000    -6.0727140000    -0.2319130000
    7      C      -1.5790970000    -4.7870490000    -0.3050440000
    8      C       1.2680820000    -5.1628010000     0.1965490000
    9      C       0.7087960000    -3.8748170000     0.1276060000
   10      C      -0.6967690000    -3.6839520000    -0.1247920000
   11      O       2.5723780000    -5.4997720000     0.3978670000
   12      O      -2.8895320000    -4.4590550000    -0.5061030000
   13      C      -3.7184200000    -5.3290630000    -1.2673350000
   14      H      -4.6352040000    -4.7556940000    -1.5028040000
   15      H      -4.0107900000    -6.2380950000    -0.6974710000
   16      H      -3.2265060000    -5.6372620000    -2.2151940000
   17      C       3.4674150000    -4.5722610000     0.9992380000
   18      H       4.3886480000    -5.1397430000     1.2306490000
   19      H       3.0523230000    -4.1531310000     1.9409050000
   20      H       3.7308190000    -3.7395310000     0.3115430000
   21      C      -1.0643660000    -2.3066540000    -0.1873230000
   22      S       1.5211540000    -2.3065010000     0.2571280000
   23      C       0.0000000000    -1.4351850000     0.0000000000
   24      H      -2.0959390000    -1.9781380000    -0.3659030000
   25      C       0.0000000000     0.0000000000     0.0000000000
   26      S       0.2346280000     0.8738130000     1.5075410000
   27      C       0.6408890000     2.3929690000     0.7188730000
   28      C       0.2348150000     0.8734340000    -1.0678720000
   29      C       0.5923770000     2.2168110000    -0.6864100000
   30      S       0.1745260000     0.6374220000    -2.8055160000
   31      C       0.6225510000     2.3308400000    -3.0545300000
   32      C       0.8035050000     3.0156470000    -1.8625510000
   33      F       1.1448150000     4.3079940000    -1.8190880000
   34      C       0.7403340000     2.7631080000    -4.4560840000
   35      O       0.5487930000     2.0174280000    -5.4065100000
   36      O       1.0826650000     4.0695440000    -4.5692250000
   37      C       1.2158480000     4.5464070000    -5.9162070000
   38      H       1.4940660000     5.6117290000    -5.8330640000
   39      H       0.2617360000     4.4362960000    -6.4701680000
   40      H       2.0001080000     3.9812940000    -6.4592930000
   41      H       0.8787390000     3.2860990000     1.3064860000
   42      H      -0.4577360000    -9.1436230000     0.7913460000
   43      H      -0.1580560000    -9.1494410000    -0.9797080000
   44      H      -0.1802050000    -1.4431750000     1.0648300000
 ----------------------------------------------------------------

   11   -2755.3416544477      7.44e-07  Convergence criterion met
 Total energy in the final basis set =    -2755.3416544477
        RIMP2         total energy =     -2760.4292903086 a.u.

                    Orbital Energies (a.u.)
 --------------------------------------------------------------

 Alpha MOs
 -- Occupied --
-92.0177 -91.9989 -91.9763 -91.9574 -26.3437 -20.6150 -20.5868 -20.5862
-20.5615 -11.4096 -11.3829 -11.3133 -11.3085 -11.3060 -11.3002 -11.2981
-11.2971 -11.2890 -11.2853 -11.2841 -11.2824 -11.2824 -11.2785 -11.2718
-11.2716 -11.2575 -11.2560 -11.2489 -11.2353  -9.0163  -8.9990  -8.9786
 -8.9600  -6.6970  -6.6964  -6.6959  -6.6800  -6.6793  -6.6782  -6.6597
 -6.6588  -6.6575  -6.6413  -6.6404  -6.6393  -1.6608  -1.4675  -1.4098
 -1.4085  -1.3702  -1.2289  -1.2022  -1.1729  -1.1379  -1.0990  -1.0455
 -1.0441  -1.0248  -1.0032  -0.9962  -0.9630  -0.9587  -0.9479  -0.9403
 -0.8927  -0.8688  -0.8660  -0.8140  -0.7983  -0.7886  -0.7842  -0.7672
 -0.7568  -0.7376  -0.7257  -0.7171  -0.6970  -0.6862  -0.6846  -0.6792
 -0.6741  -0.6602  -0.6557  -0.6481  -0.6333  -0.6301  -0.6193  -0.6147
 -0.6113  -0.5993  -0.5914  -0.5759  -0.5717  -0.5638  -0.5583  -0.5539
 -0.5471  -0.5328  -0.5311  -0.5252  -0.5126  -0.5076  -0.5068  -0.5009
 -0.4854  -0.4818  -0.4760  -0.4741  -0.4712  -0.4685  -0.4605  -0.4458
 -0.4226  -0.3997  -0.3846  -0.3695  -0.3506  -0.3021  -0.2887  -0.2202

          Ground-State Mulliken Net Atomic Charges

     Atom                 Charge (a.u.)
  ----------------------------------------
      1 C                    -0.070014
      2 C                    -0.263983
      3 S                    -0.137116
      4 C                    -0.042334
      5 H                     0.192853
      6 C                    -0.053479
      7 C                     0.226909
      8 C                     0.221764
      9 C                    -0.074920
     10 C                    -0.052355
     11 O                    -0.335133
     12 O                    -0.343444
     13 C                    -0.082534
     14 H                     0.119947
     15 H                     0.091790
     16 H                     0.093128
     17 C                    -0.086461
     18 H                     0.122905
     19 H                     0.091444
     20 H                     0.090594
     21 C                    -0.253116
     22 S                    -0.071783
     23 C                     0.056823
     24 H                     0.205363
     25 C                    -0.091315
     26 S                     0.094017
     27 C                    -0.185994
     28 C                     0.024133
     29 C                    -0.104656
     30 S                     0.011033
     31 C                    -0.157074
     32 C                     0.399651
     33 F                    -0.206839
     34 C                     0.444193
     35 O                    -0.460621
     36 O                    -0.300745
     37 C                    -0.058432
     38 H                     0.121340
     39 H                     0.095110
     40 H                     0.095233
     41 H                     0.219138
     42 H                     0.116619
     43 H                     0.114528
     44 H                     0.183832
  ----------------------------------------
  Sum of atomic charges =     0.000000

                    Cartesian Multipole Moments
 -----------------------------------------------------------------
    Charge (ESU x 10^10)
                -0.0000
    Dipole Moment (Debye)
         X       0.7608      Y       3.3330      Z       3.4787
       Tot       4.8775
    Quadrupole Moments (Debye-Ang)
        XX    -186.8011     XY       0.5065     YY    -178.0723
        XZ       5.9400     YZ      -7.7120     ZZ    -201.6575

 Total job time:  369.30s(wall), 11144.47s(cpu)
        *  Thank you very much for using Q-Chem.  Have a nice day.  *
