 Q-Chem 5.4, Q-Chem, Inc., Pleasanton, CA (2021)
 Q-Chem 5.4.0 for Intel X86 EM64T Linux

User input:
--------------------------------------------------------------
$molecule
0 1
C	-0.123330	-8.517702	-0.296276
C	0.421494	-7.641575	0.631143
S	-0.911611	-7.638634	-1.628795
C	0.233291	-6.264785	0.305097
H	0.950737	-7.966081	1.535988
C	-0.478557	-6.072714	-0.931114
C	-0.781346	-4.787049	-1.405737
C	0.664542	-5.162801	1.097747
C	0.357854	-3.874817	0.624993
C	-0.352278	-3.683952	-0.613970
O	1.348709	-5.499772	2.226300
O	-1.469658	-4.459055	-2.538827
C	-1.419319	-5.329063	-3.663102
H	-1.828237	-4.755694	-4.516756
H	-2.043793	-6.238095	-3.520769
H	-0.377021	-5.637262	-3.895546
C	1.463351	-4.572261	3.298492
H	1.878237	-5.139743	4.152945
H	0.475176	-4.153131	3.585804
H	2.159469	-3.739531	3.058230
C	-0.540664	-2.306654	-0.935761
S	0.780808	-2.306501	1.330550
C	-0.000000	-1.435185	-0.000000
H	-1.066946	-1.978138	-1.840780
C	0.000000	0.000000	0.000000
S	0.382799	0.819795	1.507541
C	1.046687	2.245325	0.718873
C	0.382918	0.819389	-1.067872
C	0.968323	2.080267	-0.686410
S	0.282561	0.597432	-2.805516
C	1.017839	2.187324	-3.054530
C	1.314960	2.830306	-1.862551
F	1.875498	4.043751	-1.819088
C	1.208895	2.592573	-4.456084
O	0.890778	1.891482	-5.406510
O	1.772886	3.819715	-4.569225
C	1.986852	4.266207	-5.916207
H	2.445834	5.267032	-5.833064
H	1.028114	4.323448	-6.470168
H	2.661066	3.573494	-6.459293
H	1.436015	3.083584	1.306486
H	-0.900433	-9.143623	0.158021
H	0.648903	-9.149441	-0.750822
H	-0.931540	-1.443175	0.546415
$end

$rem
JOBTYPE		SP
EXCHANGE	HF
CORRELATION	pRIMP2
BASIS		cc-pvtz
METHOD		rimp2
AUX_BASIS	rimp2-cc-pvtz
SOLVENT_METHOD	PCM
PURECART	11111
SYMMETRY	false
MEM_TOTAL	110000
SCF_CONVERGENCE = 6
THRESH=10
GUI = 2
$end

$solvent
dielectric 4.90
$end
--------------------------------------------------------------

             Standard Nuclear Orientation (Angstroms)
    I     Atom           X                Y                Z
 ----------------------------------------------------------------
    1      C      -0.1233300000    -8.5177020000    -0.2962760000
    2      C       0.4214940000    -7.6415750000     0.6311430000
    3      S      -0.9116110000    -7.6386340000    -1.6287950000
    4      C       0.2332910000    -6.2647850000     0.3050970000
    5      H       0.9507370000    -7.9660810000     1.5359880000
    6      C      -0.4785570000    -6.0727140000    -0.9311140000
    7      C      -0.7813460000    -4.7870490000    -1.4057370000
    8      C       0.6645420000    -5.1628010000     1.0977470000
    9      C       0.3578540000    -3.8748170000     0.6249930000
   10      C      -0.3522780000    -3.6839520000    -0.6139700000
   11      O       1.3487090000    -5.4997720000     2.2263000000
   12      O      -1.4696580000    -4.4590550000    -2.5388270000
   13      C      -1.4193190000    -5.3290630000    -3.6631020000
   14      H      -1.8282370000    -4.7556940000    -4.5167560000
   15      H      -2.0437930000    -6.2380950000    -3.5207690000
   16      H      -0.3770210000    -5.6372620000    -3.8955460000
   17      C       1.4633510000    -4.5722610000     3.2984920000
   18      H       1.8782370000    -5.1397430000     4.1529450000
   19      H       0.4751760000    -4.1531310000     3.5858040000
   20      H       2.1594690000    -3.7395310000     3.0582300000
   21      C      -0.5406640000    -2.3066540000    -0.9357610000
   22      S       0.7808080000    -2.3065010000     1.3305500000
   23      C       0.0000000000    -1.4351850000     0.0000000000
   24      H      -1.0669460000    -1.9781380000    -1.8407800000
   25      C       0.0000000000     0.0000000000     0.0000000000
   26      S       0.3827990000     0.8197950000     1.5075410000
   27      C       1.0466870000     2.2453250000     0.7188730000
   28      C       0.3829180000     0.8193890000    -1.0678720000
   29      C       0.9683230000     2.0802670000    -0.6864100000
   30      S       0.2825610000     0.5974320000    -2.8055160000
   31      C       1.0178390000     2.1873240000    -3.0545300000
   32      C       1.3149600000     2.8303060000    -1.8625510000
   33      F       1.8754980000     4.0437510000    -1.8190880000
   34      C       1.2088950000     2.5925730000    -4.4560840000
   35      O       0.8907780000     1.8914820000    -5.4065100000
   36      O       1.7728860000     3.8197150000    -4.5692250000
   37      C       1.9868520000     4.2662070000    -5.9162070000
   38      H       2.4458340000     5.2670320000    -5.8330640000
   39      H       1.0281140000     4.3234480000    -6.4701680000
   40      H       2.6610660000     3.5734940000    -6.4592930000
   41      H       1.4360150000     3.0835840000     1.3064860000
   42      H      -0.9004330000    -9.1436230000     0.1580210000
   43      H       0.6489030000    -9.1494410000    -0.7508220000
   44      H      -0.9315400000    -1.4431750000     0.5464150000
 ----------------------------------------------------------------

   11   -2755.3292539081      8.70e-07  Convergence criterion met
 Total energy in the final basis set =    -2755.3292539081
        RIMP2         total energy =     -2760.4221844543 a.u.

                    Orbital Energies (a.u.)
 --------------------------------------------------------------

 Alpha MOs
 -- Occupied --
-92.0155 -91.9987 -91.9804 -91.9577 -26.3436 -20.6152 -20.5873 -20.5869
-20.5618 -11.4099 -11.3828 -11.3099 -11.3090 -11.3076 -11.3013 -11.2985
-11.2979 -11.2891 -11.2854 -11.2850 -11.2836 -11.2822 -11.2796 -11.2742
-11.2722 -11.2580 -11.2575 -11.2492 -11.2358  -9.0144  -8.9989  -8.9826
 -8.9603  -6.6952  -6.6946  -6.6941  -6.6799  -6.6791  -6.6780  -6.6636
 -6.6628  -6.6614  -6.6415  -6.6406  -6.6396  -1.6607  -1.4677  -1.4106
 -1.4087  -1.3704  -1.2305  -1.2028  -1.1735  -1.1382  -1.0998  -1.0464
 -1.0452  -1.0247  -1.0040  -0.9975  -0.9634  -0.9593  -0.9484  -0.9404
 -0.8943  -0.8695  -0.8655  -0.8115  -0.8007  -0.7895  -0.7839  -0.7673
 -0.7569  -0.7376  -0.7255  -0.7152  -0.6981  -0.6880  -0.6849  -0.6804
 -0.6742  -0.6615  -0.6565  -0.6485  -0.6373  -0.6310  -0.6196  -0.6146
 -0.6121  -0.5994  -0.5925  -0.5763  -0.5709  -0.5647  -0.5586  -0.5539
 -0.5460  -0.5343  -0.5307  -0.5292  -0.5139  -0.5086  -0.5078  -0.5008
 -0.4852  -0.4818  -0.4765  -0.4745  -0.4718  -0.4685  -0.4586  -0.4459
 -0.4306  -0.3946  -0.3860  -0.3700  -0.3512  -0.3004  -0.2884  -0.2167

          Ground-State Mulliken Net Atomic Charges

     Atom                 Charge (a.u.)
  ----------------------------------------
      1 C                    -0.069961
      2 C                    -0.264130
      3 S                    -0.136330
      4 C                    -0.043972
      5 H                     0.192852
      6 C                    -0.052831
      7 C                     0.223324
      8 C                     0.221576
      9 C                    -0.076104
     10 C                    -0.049305
     11 O                    -0.334417
     12 O                    -0.343939
     13 C                    -0.082690
     14 H                     0.120731
     15 H                     0.091973
     16 H                     0.093063
     17 C                    -0.088156
     18 H                     0.123962
     19 H                     0.092191
     20 H                     0.089824
     21 C                    -0.272201
     22 S                    -0.081850
     23 C                     0.077820
     24 H                     0.206682
     25 C                    -0.089921
     26 S                     0.072823
     27 C                    -0.179752
     28 C                     0.042819
     29 C                    -0.116844
     30 S                     0.004315
     31 C                    -0.158260
     32 C                     0.402051
     33 F                    -0.206632
     34 C                     0.445589
     35 O                    -0.460478
     36 O                    -0.300872
     37 C                    -0.058501
     38 H                     0.121511
     39 H                     0.095152
     40 H                     0.095267
     41 H                     0.218899
     42 H                     0.116803
     43 H                     0.114596
     44 H                     0.203326
  ----------------------------------------
  Sum of atomic charges =     0.000000

                    Cartesian Multipole Moments
 -----------------------------------------------------------------
    Charge (ESU x 10^10)
                 0.0000
    Dipole Moment (Debye)
         X       0.7249      Y       2.7478      Z       3.3973
       Tot       4.4292
    Quadrupole Moments (Debye-Ang)
        XX    -198.3573     XY       4.2653     YY    -178.9138
        XZ       0.3773     YZ     -10.2142     ZZ    -188.1546

 Total job time:  342.28s(wall), 10844.16s(cpu)
        *  Thank you very much for using Q-Chem.  Have a nice day.  *
