 Q-Chem 5.4, Q-Chem, Inc., Pleasanton, CA (2021)
 Q-Chem 5.4.0 for Intel X86 EM64T Linux

User input:
--------------------------------------------------------------
$molecule
0 1
C	0.320589	-8.517702	-0.014560
C	-0.737240	-7.641575	0.180211
S	1.842356	-7.638634	-0.299553
C	-0.366488	-6.264785	0.114873
H	-1.768528	-7.966081	0.368061
C	1.038637	-6.072714	-0.131236
C	1.588197	-4.787049	-0.253435
C	-1.258831	-5.162801	0.249014
C	-0.709695	-3.874817	0.122513
C	0.697430	-3.683952	-0.121043
O	-2.553323	-5.499772	0.505933
O	2.888369	-4.459055	-0.512697
C	3.927625	-5.329063	-0.080869
H	4.869656	-4.755694	-0.173159
H	4.007459	-6.238095	-0.716363
H	3.789565	-5.637262	0.978072
C	-3.600064	-4.572261	0.246949
H	-4.544887	-5.139743	0.344574
H	-3.532074	-4.153131	-0.779898
H	-3.612378	-3.739531	0.983261
C	1.064246	-2.306654	-0.188009
S	-1.517360	-2.306501	0.278644
C	-0.000000	-1.435185	-0.000000
H	2.094685	-1.978138	-0.373017
C	0.000000	0.000000	0.000000
S	0.079327	0.901280	1.507541
C	0.215617	2.467903	0.718873
C	0.079577	0.900940	-1.067872
C	0.198433	2.285998	-0.686410
S	0.061187	0.658044	-2.805516
C	0.208347	2.403534	-3.054530
C	0.267636	3.109360	-1.862551
F	0.379347	4.441341	-1.819088
C	0.249278	2.849688	-4.456084
O	0.190132	2.082076	-5.406510
O	0.359548	4.195721	-4.569225
C	0.407901	4.688467	-5.916207
H	0.496901	5.785916	-5.833064
H	-0.512596	4.414348	-6.470168
H	1.278377	4.268124	-6.459293
H	0.294764	3.388767	1.306486
H	0.159475	-9.143623	-0.900177
H	0.483604	-9.149441	0.866566
H	-0.194856	-1.443175	-1.062246
$end

$rem
JOBTYPE		SP
EXCHANGE	HF
CORRELATION	pRIMP2
BASIS		cc-pvtz
METHOD		rimp2
AUX_BASIS	rimp2-cc-pvtz
SOLVENT_METHOD	PCM
PURECART	11111
SYMMETRY	false
MEM_TOTAL	110000
SCF_CONVERGENCE = 6
THRESH=10
GUI = 2
$end

$solvent
dielectric 4.90
$end
--------------------------------------------------------------

             Standard Nuclear Orientation (Angstroms)
    I     Atom           X                Y                Z
 ----------------------------------------------------------------
    1      C       0.3205890000    -8.5177020000    -0.0145600000
    2      C      -0.7372400000    -7.6415750000     0.1802110000
    3      S       1.8423560000    -7.6386340000    -0.2995530000
    4      C      -0.3664880000    -6.2647850000     0.1148730000
    5      H      -1.7685280000    -7.9660810000     0.3680610000
    6      C       1.0386370000    -6.0727140000    -0.1312360000
    7      C       1.5881970000    -4.7870490000    -0.2534350000
    8      C      -1.2588310000    -5.1628010000     0.2490140000
    9      C      -0.7096950000    -3.8748170000     0.1225130000
   10      C       0.6974300000    -3.6839520000    -0.1210430000
   11      O      -2.5533230000    -5.4997720000     0.5059330000
   12      O       2.8883690000    -4.4590550000    -0.5126970000
   13      C       3.9276250000    -5.3290630000    -0.0808690000
   14      H       4.8696560000    -4.7556940000    -0.1731590000
   15      H       4.0074590000    -6.2380950000    -0.7163630000
   16      H       3.7895650000    -5.6372620000     0.9780720000
   17      C      -3.6000640000    -4.5722610000     0.2469490000
   18      H      -4.5448870000    -5.1397430000     0.3445740000
   19      H      -3.5320740000    -4.1531310000    -0.7798980000
   20      H      -3.6123780000    -3.7395310000     0.9832610000
   21      C       1.0642460000    -2.3066540000    -0.1880090000
   22      S      -1.5173600000    -2.3065010000     0.2786440000
   23      C       0.0000000000    -1.4351850000     0.0000000000
   24      H       2.0946850000    -1.9781380000    -0.3730170000
   25      C       0.0000000000     0.0000000000     0.0000000000
   26      S       0.0793270000     0.9012800000     1.5075410000
   27      C       0.2156170000     2.4679030000     0.7188730000
   28      C       0.0795770000     0.9009400000    -1.0678720000
   29      C       0.1984330000     2.2859980000    -0.6864100000
   30      S       0.0611870000     0.6580440000    -2.8055160000
   31      C       0.2083470000     2.4035340000    -3.0545300000
   32      C       0.2676360000     3.1093600000    -1.8625510000
   33      F       0.3793470000     4.4413410000    -1.8190880000
   34      C       0.2492780000     2.8496880000    -4.4560840000
   35      O       0.1901320000     2.0820760000    -5.4065100000
   36      O       0.3595480000     4.1957210000    -4.5692250000
   37      C       0.4079010000     4.6884670000    -5.9162070000
   38      H       0.4969010000     5.7859160000    -5.8330640000
   39      H      -0.5125960000     4.4143480000    -6.4701680000
   40      H       1.2783770000     4.2681240000    -6.4592930000
   41      H       0.2947640000     3.3887670000     1.3064860000
   42      H       0.1594750000    -9.1436230000    -0.9001770000
   43      H       0.4836040000    -9.1494410000     0.8665660000
   44      H      -0.1948560000    -1.4431750000    -1.0622460000
 ----------------------------------------------------------------

   11   -2755.3481888464      6.79e-07  Convergence criterion met
 Total energy in the final basis set =    -2755.3481888464
        RIMP2         total energy =     -2760.4357321960 a.u.

                    Orbital Energies (a.u.)
 --------------------------------------------------------------

 Alpha MOs
 -- Occupied --
-92.0114 -92.0001 -91.9770 -91.9581 -26.3445 -20.6153 -20.5871 -20.5868
-20.5618 -11.4101 -11.3841 -11.3114 -11.3089 -11.3071 -11.3043 -11.3015
-11.2987 -11.2892 -11.2852 -11.2843 -11.2827 -11.2826 -11.2804 -11.2728
-11.2717 -11.2581 -11.2575 -11.2496 -11.2369  -9.0103  -9.0003  -8.9792
 -8.9607  -6.6911  -6.6905  -6.6900  -6.6813  -6.6806  -6.6794  -6.6603
 -6.6595  -6.6582  -6.6419  -6.6410  -6.6400  -1.6615  -1.4678  -1.4102
 -1.4088  -1.3705  -1.2295  -1.2025  -1.1733  -1.1369  -1.1008  -1.0465
 -1.0455  -1.0235  -1.0034  -0.9970  -0.9625  -0.9588  -0.9485  -0.9413
 -0.8932  -0.8712  -0.8648  -0.8129  -0.7962  -0.7901  -0.7845  -0.7680
 -0.7588  -0.7354  -0.7263  -0.7101  -0.7010  -0.6949  -0.6853  -0.6797
 -0.6744  -0.6650  -0.6554  -0.6484  -0.6350  -0.6304  -0.6200  -0.6148
 -0.6115  -0.5991  -0.5922  -0.5777  -0.5704  -0.5652  -0.5577  -0.5538
 -0.5484  -0.5316  -0.5307  -0.5260  -0.5129  -0.5086  -0.5070  -0.5016
 -0.4853  -0.4812  -0.4762  -0.4746  -0.4706  -0.4680  -0.4606  -0.4462
 -0.4221  -0.4011  -0.3851  -0.3700  -0.3506  -0.3022  -0.2893  -0.2209

          Ground-State Mulliken Net Atomic Charges

     Atom                 Charge (a.u.)
  ----------------------------------------
      1 C                    -0.070359
      2 C                    -0.259304
      3 S                    -0.135337
      4 C                    -0.044203
      5 H                     0.193434
      6 C                    -0.052548
      7 C                     0.225942
      8 C                     0.227965
      9 C                    -0.082529
     10 C                    -0.062925
     11 O                    -0.335250
     12 O                    -0.343176
     13 C                    -0.082698
     14 H                     0.120056
     15 H                     0.092155
     16 H                     0.092575
     17 C                    -0.086455
     18 H                     0.122894
     19 H                     0.092760
     20 H                     0.090267
     21 C                    -0.231128
     22 S                    -0.070216
     23 C                     0.060936
     24 H                     0.206333
     25 C                    -0.091096
     26 S                     0.088388
     27 C                    -0.178596
     28 C                     0.017634
     29 C                    -0.112375
     30 S                     0.001136
     31 C                    -0.159780
     32 C                     0.399828
     33 F                    -0.205807
     34 C                     0.444453
     35 O                    -0.461231
     36 O                    -0.300761
     37 C                    -0.058658
     38 H                     0.121513
     39 H                     0.095288
     40 H                     0.095179
     41 H                     0.217548
     42 H                     0.117457
     43 H                     0.114987
     44 H                     0.185704
  ----------------------------------------
  Sum of atomic charges =     0.000000

                    Cartesian Multipole Moments
 -----------------------------------------------------------------
    Charge (ESU x 10^10)
                -0.0000
    Dipole Moment (Debye)
         X       0.0330      Y       2.9358      Z       2.4010
       Tot       3.7927
    Quadrupole Moments (Debye-Ang)
        XX    -183.7220     XY       5.1324     YY    -174.5567
        XZ       2.2764     YZ      -8.3313     ZZ    -206.0287

 Total job time:  323.23s(wall), 10416.75s(cpu)
        *  Thank you very much for using Q-Chem.  Have a nice day.  *
