 Q-Chem 5.4, Q-Chem, Inc., Pleasanton, CA (2021)
 Q-Chem 5.4.0 for Intel X86 EM64T Linux

User input:
--------------------------------------------------------------
$molecule
0 1
C	0.172904	-8.517702	0.270358
C	-0.524688	-7.641575	-0.548363
S	1.180599	-7.638634	1.445750
C	-0.282727	-6.264785	-0.259951
H	-1.203014	-7.966081	-1.347559
C	0.632972	-6.072714	0.833868
C	1.013580	-4.787049	1.248701
C	-0.845068	-5.162801	-0.965673
C	-0.460946	-3.874817	-0.553357
C	0.453541	-3.683952	0.543470
O	-1.714812	-5.499772	-1.958276
O	1.888193	-4.459055	2.245053
C	2.033848	-5.329063	3.360989
H	2.584788	-4.755694	4.130667
H	2.624118	-6.238095	3.112380
H	1.047748	-5.637262	3.770895
C	-2.013896	-4.572261	-2.994272
H	-2.570853	-5.139743	-3.763700
H	-1.090625	-4.153131	-3.448815
H	-2.657717	-3.739531	-2.636780
C	0.694943	-2.306654	0.827659
S	-0.999993	-2.306501	-1.174750
C	0.000000	-1.435185	0.000000
H	1.370385	-1.978138	1.627541
C	0.000000	0.000000	0.000000
S	0.452792	0.783312	1.507541
C	1.238397	2.145556	0.718873
C	0.452875	0.782898	-1.067872
C	1.145945	1.987956	-0.686410
S	0.333556	0.570531	-2.805516
C	1.204604	2.090290	-3.054530
C	1.556633	2.704929	-1.862551
F	2.220797	3.864903	-1.819088
C	1.430252	2.477345	-4.456084
O	1.052242	1.806648	-5.406510
O	2.099050	3.650663	-4.569225
C	2.351116	4.076808	-5.916207
H	2.895579	5.033821	-5.833064
H	1.401015	4.217390	-6.470168
H	2.962391	3.327969	-6.459293
H	1.699302	2.946693	1.306486
H	0.859314	-9.143623	-0.311979
H	-0.508666	-9.149441	0.852097
H	0.822504	-1.443175	-0.699874
$end

$rem
JOBTYPE		SP
EXCHANGE	HF
CORRELATION	pRIMP2
BASIS		cc-pvtz
METHOD		rimp2
AUX_BASIS	rimp2-cc-pvtz
SOLVENT_METHOD	PCM
PURECART	11111
SYMMETRY	false
MEM_TOTAL	110000
SCF_CONVERGENCE = 6
THRESH=10
GUI = 2
$end

$solvent
dielectric 4.90
$end
--------------------------------------------------------------

             Standard Nuclear Orientation (Angstroms)
    I     Atom           X                Y                Z
 ----------------------------------------------------------------
    1      C       0.1729040000    -8.5177020000     0.2703580000
    2      C      -0.5246880000    -7.6415750000    -0.5483630000
    3      S       1.1805990000    -7.6386340000     1.4457500000
    4      C      -0.2827270000    -6.2647850000    -0.2599510000
    5      H      -1.2030140000    -7.9660810000    -1.3475590000
    6      C       0.6329720000    -6.0727140000     0.8338680000
    7      C       1.0135800000    -4.7870490000     1.2487010000
    8      C      -0.8450680000    -5.1628010000    -0.9656730000
    9      C      -0.4609460000    -3.8748170000    -0.5533570000
   10      C       0.4535410000    -3.6839520000     0.5434700000
   11      O      -1.7148120000    -5.4997720000    -1.9582760000
   12      O       1.8881930000    -4.4590550000     2.2450530000
   13      C       2.0338480000    -5.3290630000     3.3609890000
   14      H       2.5847880000    -4.7556940000     4.1306670000
   15      H       2.6241180000    -6.2380950000     3.1123800000
   16      H       1.0477480000    -5.6372620000     3.7708950000
   17      C      -2.0138960000    -4.5722610000    -2.9942720000
   18      H      -2.5708530000    -5.1397430000    -3.7637000000
   19      H      -1.0906250000    -4.1531310000    -3.4488150000
   20      H      -2.6577170000    -3.7395310000    -2.6367800000
   21      C       0.6949430000    -2.3066540000     0.8276590000
   22      S      -0.9999930000    -2.3065010000    -1.1747500000
   23      C       0.0000000000    -1.4351850000     0.0000000000
   24      H       1.3703850000    -1.9781380000     1.6275410000
   25      C       0.0000000000     0.0000000000     0.0000000000
   26      S       0.4527920000     0.7833120000     1.5075410000
   27      C       1.2383970000     2.1455560000     0.7188730000
   28      C       0.4528750000     0.7828980000    -1.0678720000
   29      C       1.1459450000     1.9879560000    -0.6864100000
   30      S       0.3335560000     0.5705310000    -2.8055160000
   31      C       1.2046040000     2.0902900000    -3.0545300000
   32      C       1.5566330000     2.7049290000    -1.8625510000
   33      F       2.2207970000     3.8649030000    -1.8190880000
   34      C       1.4302520000     2.4773450000    -4.4560840000
   35      O       1.0522420000     1.8066480000    -5.4065100000
   36      O       2.0990500000     3.6506630000    -4.5692250000
   37      C       2.3511160000     4.0768080000    -5.9162070000
   38      H       2.8955790000     5.0338210000    -5.8330640000
   39      H       1.4010150000     4.2173900000    -6.4701680000
   40      H       2.9623910000     3.3279690000    -6.4592930000
   41      H       1.6993020000     2.9466930000     1.3064860000
   42      H       0.8593140000    -9.1436230000    -0.3119790000
   43      H      -0.5086660000    -9.1494410000     0.8520970000
   44      H       0.8225040000    -1.4431750000    -0.6998740000
 ----------------------------------------------------------------

   11   -2755.3277052161      7.68e-07  Convergence criterion met
 Total energy in the final basis set =    -2755.3277052161
        RIMP2         total energy =     -2760.4230186867 a.u.

                    Orbital Energies (a.u.)
 --------------------------------------------------------------

 Alpha MOs
 -- Occupied --
-92.0156 -92.0010 -91.9765 -91.9581 -26.3441 -20.6153 -20.5875 -20.5864
-20.5618 -11.4100 -11.3835 -11.3093 -11.3092 -11.3069 -11.3021 -11.2991
-11.2982 -11.2892 -11.2861 -11.2836 -11.2831 -11.2831 -11.2805 -11.2731
-11.2728 -11.2580 -11.2578 -11.2495 -11.2363  -9.0142  -9.0010  -8.9789
 -8.9607  -6.6950  -6.6943  -6.6939  -6.6819  -6.6812  -6.6801  -6.6601
 -6.6592  -6.6579  -6.6420  -6.6410  -6.6400  -1.6612  -1.4678  -1.4101
 -1.4090  -1.3705  -1.2331  -1.2018  -1.1736  -1.1384  -1.1002  -1.0475
 -1.0452  -1.0248  -1.0029  -0.9969  -0.9645  -0.9569  -0.9487  -0.9419
 -0.8931  -0.8710  -0.8629  -0.8166  -0.7933  -0.7892  -0.7844  -0.7682
 -0.7581  -0.7356  -0.7260  -0.7096  -0.7003  -0.6945  -0.6852  -0.6807
 -0.6744  -0.6660  -0.6554  -0.6485  -0.6357  -0.6310  -0.6198  -0.6152
 -0.6108  -0.6000  -0.5938  -0.5758  -0.5710  -0.5643  -0.5583  -0.5556
 -0.5515  -0.5320  -0.5285  -0.5252  -0.5136  -0.5103  -0.5075  -0.5003
 -0.4856  -0.4807  -0.4770  -0.4739  -0.4722  -0.4659  -0.4598  -0.4459
 -0.4299  -0.3966  -0.3829  -0.3704  -0.3500  -0.3022  -0.2880  -0.2173

          Ground-State Mulliken Net Atomic Charges

     Atom                 Charge (a.u.)
  ----------------------------------------
      1 C                    -0.070029
      2 C                    -0.261688
      3 S                    -0.136046
      4 C                    -0.044072
      5 H                     0.193407
      6 C                    -0.051642
      7 C                     0.221827
      8 C                     0.228507
      9 C                    -0.071908
     10 C                    -0.046290
     11 O                    -0.335201
     12 O                    -0.344021
     13 C                    -0.082637
     14 H                     0.119734
     15 H                     0.092315
     16 H                     0.092803
     17 C                    -0.087814
     18 H                     0.123182
     19 H                     0.093149
     20 H                     0.090312
     21 C                    -0.278569
     22 S                    -0.080785
     23 C                     0.045705
     24 H                     0.206158
     25 C                    -0.036587
     26 S                     0.086666
     27 C                    -0.189076
     28 C                    -0.013799
     29 C                    -0.098929
     30 S                     0.013914
     31 C                    -0.155659
     32 C                     0.396753
     33 F                    -0.205926
     34 C                     0.445937
     35 O                    -0.460678
     36 O                    -0.300966
     37 C                    -0.058470
     38 H                     0.121539
     39 H                     0.095228
     40 H                     0.095156
     41 H                     0.217359
     42 H                     0.117260
     43 H                     0.114703
     44 H                     0.199180
  ----------------------------------------
  Sum of atomic charges =     0.000000

                    Cartesian Multipole Moments
 -----------------------------------------------------------------
    Charge (ESU x 10^10)
                 0.0000
    Dipole Moment (Debye)
         X       1.7820      Y       2.5372      Z       2.4572
       Tot       3.9561
    Quadrupole Moments (Debye-Ang)
        XX    -195.6202     XY       9.2652     YY    -179.4438
        XZ       2.4428     YZ      -3.7888     ZZ    -189.7731

 Total job time:  348.95s(wall), 10710.43s(cpu)
        *  Thank you very much for using Q-Chem.  Have a nice day.  *
