 Q-Chem 5.4, Q-Chem, Inc., Pleasanton, CA (2021)
 Q-Chem 5.4.0 for Intel X86 EM64T Linux

User input:
--------------------------------------------------------------
$molecule
0 1
C	0.270358	-8.517702	-0.172904
C	-0.548363	-7.641575	0.524688
S	1.445750	-7.638634	-1.180599
C	-0.259951	-6.264785	0.282727
H	-1.347559	-7.966081	1.203014
C	0.833868	-6.072714	-0.632972
C	1.248701	-4.787049	-1.013580
C	-0.965673	-5.162801	0.845068
C	-0.553357	-3.874817	0.460946
C	0.543470	-3.683952	-0.453541
O	-1.958276	-5.499772	1.714812
O	2.245053	-4.459055	-1.888193
C	3.360989	-5.329063	-2.033848
H	4.130667	-4.755694	-2.584788
H	3.112380	-6.238095	-2.624118
H	3.770895	-5.637262	-1.047748
C	-2.994272	-4.572261	2.013896
H	-3.763700	-5.139743	2.570853
H	-3.448815	-4.153131	1.090625
H	-2.636780	-3.739531	2.657717
C	0.827659	-2.306654	-0.694943
S	-1.174750	-2.306501	0.999993
C	-0.000000	-1.435185	-0.000000
H	1.627541	-1.978138	-1.370385
C	0.000000	0.000000	0.000000
S	0.157577	0.890937	1.507541
C	0.429889	2.439720	0.718873
C	0.157797	0.890576	-1.067872
C	0.396915	2.260004	-0.686410
S	0.118307	0.650207	-2.805516
C	0.417036	2.376229	-3.054530
C	0.537616	3.074202	-1.862551
F	0.764992	4.391378	-1.819088
C	0.496696	2.817118	-4.456084
O	0.370874	2.057582	-5.406510
O	0.723861	4.148418	-4.569225
C	0.814976	4.635075	-5.916207
H	0.999286	5.720591	-5.833064
H	-0.125909	4.442226	-6.470168
H	1.645504	4.140465	-6.459293
H	0.588993	3.350182	1.306486
H	-0.311979	-9.143623	-0.859314
H	0.852097	-9.149441	0.508666
H	-0.699874	-1.443175	-0.822504
$end

$rem
JOBTYPE		SP
EXCHANGE	HF
CORRELATION	pRIMP2
BASIS		cc-pvtz
METHOD		rimp2
AUX_BASIS	rimp2-cc-pvtz
SOLVENT_METHOD	PCM
PURECART	11111
SYMMETRY	false
MEM_TOTAL	110000
SCF_CONVERGENCE = 6
THRESH=10
GUI = 2
$end

$solvent
dielectric 4.90
$end
--------------------------------------------------------------

             Standard Nuclear Orientation (Angstroms)
    I     Atom           X                Y                Z
 ----------------------------------------------------------------
    1      C       0.2703580000    -8.5177020000    -0.1729040000
    2      C      -0.5483630000    -7.6415750000     0.5246880000
    3      S       1.4457500000    -7.6386340000    -1.1805990000
    4      C      -0.2599510000    -6.2647850000     0.2827270000
    5      H      -1.3475590000    -7.9660810000     1.2030140000
    6      C       0.8338680000    -6.0727140000    -0.6329720000
    7      C       1.2487010000    -4.7870490000    -1.0135800000
    8      C      -0.9656730000    -5.1628010000     0.8450680000
    9      C      -0.5533570000    -3.8748170000     0.4609460000
   10      C       0.5434700000    -3.6839520000    -0.4535410000
   11      O      -1.9582760000    -5.4997720000     1.7148120000
   12      O       2.2450530000    -4.4590550000    -1.8881930000
   13      C       3.3609890000    -5.3290630000    -2.0338480000
   14      H       4.1306670000    -4.7556940000    -2.5847880000
   15      H       3.1123800000    -6.2380950000    -2.6241180000
   16      H       3.7708950000    -5.6372620000    -1.0477480000
   17      C      -2.9942720000    -4.5722610000     2.0138960000
   18      H      -3.7637000000    -5.1397430000     2.5708530000
   19      H      -3.4488150000    -4.1531310000     1.0906250000
   20      H      -2.6367800000    -3.7395310000     2.6577170000
   21      C       0.8276590000    -2.3066540000    -0.6949430000
   22      S      -1.1747500000    -2.3065010000     0.9999930000
   23      C       0.0000000000    -1.4351850000     0.0000000000
   24      H       1.6275410000    -1.9781380000    -1.3703850000
   25      C       0.0000000000     0.0000000000     0.0000000000
   26      S       0.1575770000     0.8909370000     1.5075410000
   27      C       0.4298890000     2.4397200000     0.7188730000
   28      C       0.1577970000     0.8905760000    -1.0678720000
   29      C       0.3969150000     2.2600040000    -0.6864100000
   30      S       0.1183070000     0.6502070000    -2.8055160000
   31      C       0.4170360000     2.3762290000    -3.0545300000
   32      C       0.5376160000     3.0742020000    -1.8625510000
   33      F       0.7649920000     4.3913780000    -1.8190880000
   34      C       0.4966960000     2.8171180000    -4.4560840000
   35      O       0.3708740000     2.0575820000    -5.4065100000
   36      O       0.7238610000     4.1484180000    -4.5692250000
   37      C       0.8149760000     4.6350750000    -5.9162070000
   38      H       0.9992860000     5.7205910000    -5.8330640000
   39      H      -0.1259090000     4.4422260000    -6.4701680000
   40      H       1.6455040000     4.1404650000    -6.4592930000
   41      H       0.5889930000     3.3501820000     1.3064860000
   42      H      -0.3119790000    -9.1436230000    -0.8593140000
   43      H       0.8520970000    -9.1494410000     0.5086660000
   44      H      -0.6998740000    -1.4431750000    -0.8225040000
 ----------------------------------------------------------------

   11   -2755.3450109782      7.40e-07  Convergence criterion met
 Total energy in the final basis set =    -2755.3450109782
        RIMP2         total energy =     -2760.4343326255 a.u.

                    Orbital Energies (a.u.)
 --------------------------------------------------------------

 Alpha MOs
 -- Occupied --
-92.0128 -91.9993 -91.9800 -91.9583 -26.3440 -20.6153 -20.5876 -20.5871
-20.5618 -11.4100 -11.3834 -11.3093 -11.3084 -11.3072 -11.3053 -11.2999
-11.2987 -11.2892 -11.2854 -11.2850 -11.2839 -11.2826 -11.2819 -11.2731
-11.2729 -11.2585 -11.2585 -11.2499 -11.2374  -9.0116  -8.9994  -8.9821
 -8.9609  -6.6924  -6.6918  -6.6913  -6.6805  -6.6797  -6.6786  -6.6632
 -6.6623  -6.6610  -6.6422  -6.6412  -6.6402  -1.6610  -1.4678  -1.4110
 -1.4090  -1.3705  -1.2298  -1.2030  -1.1739  -1.1371  -1.1011  -1.0466
 -1.0460  -1.0234  -1.0039  -0.9980  -0.9624  -0.9595  -0.9488  -0.9412
 -0.8941  -0.8712  -0.8647  -0.8106  -0.7992  -0.7900  -0.7846  -0.7681
 -0.7583  -0.7363  -0.7259  -0.7095  -0.7004  -0.6954  -0.6852  -0.6804
 -0.6743  -0.6647  -0.6561  -0.6488  -0.6366  -0.6306  -0.6202  -0.6150
 -0.6122  -0.5989  -0.5928  -0.5776  -0.5712  -0.5657  -0.5587  -0.5535
 -0.5468  -0.5331  -0.5314  -0.5268  -0.5130  -0.5085  -0.5077  -0.5023
 -0.4852  -0.4818  -0.4764  -0.4744  -0.4692  -0.4683  -0.4618  -0.4470
 -0.4275  -0.3978  -0.3857  -0.3703  -0.3507  -0.3005  -0.2894  -0.2198

          Ground-State Mulliken Net Atomic Charges

     Atom                 Charge (a.u.)
  ----------------------------------------
      1 C                    -0.070342
      2 C                    -0.258547
      3 S                    -0.134650
      4 C                    -0.046336
      5 H                     0.193533
      6 C                    -0.052663
      7 C                     0.221337
      8 C                     0.231041
      9 C                    -0.080234
     10 C                    -0.042442
     11 O                    -0.334748
     12 O                    -0.342800
     13 C                    -0.082933
     14 H                     0.120410
     15 H                     0.092290
     16 H                     0.092556
     17 C                    -0.086841
     18 H                     0.123706
     19 H                     0.092881
     20 H                     0.090062
     21 C                    -0.282197
     22 S                    -0.076650
     23 C                     0.088575
     24 H                     0.210977
     25 C                    -0.064088
     26 S                     0.090521
     27 C                    -0.192667
     28 C                    -0.011962
     29 C                    -0.106746
     30 S                     0.004549
     31 C                    -0.155527
     32 C                     0.396974
     33 F                    -0.206330
     34 C                     0.445381
     35 O                    -0.460721
     36 O                    -0.300626
     37 C                    -0.058580
     38 H                     0.121526
     39 H                     0.095256
     40 H                     0.095173
     41 H                     0.216899
     42 H                     0.117601
     43 H                     0.115110
     44 H                     0.192271
  ----------------------------------------
  Sum of atomic charges =     0.000000

                    Cartesian Multipole Moments
 -----------------------------------------------------------------
    Charge (ESU x 10^10)
                 0.0000
    Dipole Moment (Debye)
         X      -0.0378      Y       2.5106      Z       2.5951
       Tot       3.6110
    Quadrupole Moments (Debye-Ang)
        XX    -185.1726     XY       5.7700     YY    -174.1771
        XZ      -7.6069     YZ     -10.1635     ZZ    -204.0561

 Total job time:  533.04s(wall), 11131.14s(cpu)
        *  Thank you very much for using Q-Chem.  Have a nice day.  *
