 Q-Chem 5.4, Q-Chem, Inc., Pleasanton, CA (2021)
 Q-Chem 5.4.0 for Intel X86 EM64T Linux

User input:
--------------------------------------------------------------
$molecule
0 1
C	-0.306235	-8.517702	-0.095966
C	0.754415	-7.641575	0.082807
S	-1.833702	-7.638634	-0.348635
C	0.383675	-6.264785	0.017401
H	1.787757	-7.966081	0.259008
C	-1.020885	-6.072714	-0.231913
C	-1.579097	-4.787049	-0.305044
C	1.268082	-5.162801	0.196549
C	0.708796	-3.874817	0.127606
C	-0.696769	-3.683952	-0.124792
O	2.572378	-5.499772	0.397867
O	-2.889532	-4.459055	-0.506103
C	-3.718420	-5.329063	-1.267335
H	-4.635204	-4.755694	-1.502804
H	-4.010790	-6.238095	-0.697471
H	-3.226506	-5.637262	-2.215194
C	3.467415	-4.572261	0.999238
H	4.388648	-5.139743	1.230649
H	3.052323	-4.153131	1.940905
H	3.730819	-3.739531	0.311543
C	-1.064366	-2.306654	-0.187323
S	1.521154	-2.306501	0.257128
C	-0.000000	-1.435185	-0.000000
H	-2.095939	-1.978138	-0.365903
C	0.000000	0.000000	0.000000
S	0.581934	0.692785	1.507541
C	1.592155	1.897915	0.718873
C	0.581944	0.692363	-1.067872
C	1.473741	1.758764	-0.686410
S	0.427560	0.503942	-2.805516
C	1.549278	1.849357	-3.054530
C	2.002690	2.393529	-1.862551
F	2.858191	3.420549	-1.819088
C	1.838710	2.191348	-4.456084
O	1.349977	1.596481	-5.406510
O	2.701091	3.230705	-4.569225
C	3.023327	3.606605	-5.916207
H	3.725703	4.454534	-5.833064
H	2.112072	3.910035	-6.470168
H	3.495281	2.762996	-6.459293
H	2.185174	2.606846	1.306486
H	-0.457736	-9.143623	0.791346
H	-0.158056	-9.149441	-0.979708
H	-0.180205	-1.443175	1.064830
$end

$rem
JOBTYPE		SP
EXCHANGE	HF
CORRELATION	pRIMP2
BASIS		cc-pvtz
METHOD		rimp2
AUX_BASIS	rimp2-cc-pvtz
SOLVENT_METHOD	PCM
PURECART	11111
SYMMETRY	false
MEM_TOTAL	110000
SCF_CONVERGENCE = 6
THRESH=10
GUI = 2
$end

$solvent
dielectric 4.90
$end
--------------------------------------------------------------

             Standard Nuclear Orientation (Angstroms)
    I     Atom           X                Y                Z
 ----------------------------------------------------------------
    1      C      -0.3062350000    -8.5177020000    -0.0959660000
    2      C       0.7544150000    -7.6415750000     0.0828070000
    3      S      -1.8337020000    -7.6386340000    -0.3486350000
    4      C       0.3836750000    -6.2647850000     0.0174010000
    5      H       1.7877570000    -7.9660810000     0.2590080000
    6      C      -1.0208850000    -6.0727140000    -0.2319130000
    7      C      -1.5790970000    -4.7870490000    -0.3050440000
    8      C       1.2680820000    -5.1628010000     0.1965490000
    9      C       0.7087960000    -3.8748170000     0.1276060000
   10      C      -0.6967690000    -3.6839520000    -0.1247920000
   11      O       2.5723780000    -5.4997720000     0.3978670000
   12      O      -2.8895320000    -4.4590550000    -0.5061030000
   13      C      -3.7184200000    -5.3290630000    -1.2673350000
   14      H      -4.6352040000    -4.7556940000    -1.5028040000
   15      H      -4.0107900000    -6.2380950000    -0.6974710000
   16      H      -3.2265060000    -5.6372620000    -2.2151940000
   17      C       3.4674150000    -4.5722610000     0.9992380000
   18      H       4.3886480000    -5.1397430000     1.2306490000
   19      H       3.0523230000    -4.1531310000     1.9409050000
   20      H       3.7308190000    -3.7395310000     0.3115430000
   21      C      -1.0643660000    -2.3066540000    -0.1873230000
   22      S       1.5211540000    -2.3065010000     0.2571280000
   23      C       0.0000000000    -1.4351850000     0.0000000000
   24      H      -2.0959390000    -1.9781380000    -0.3659030000
   25      C       0.0000000000     0.0000000000     0.0000000000
   26      S       0.5819340000     0.6927850000     1.5075410000
   27      C       1.5921550000     1.8979150000     0.7188730000
   28      C       0.5819440000     0.6923630000    -1.0678720000
   29      C       1.4737410000     1.7587640000    -0.6864100000
   30      S       0.4275600000     0.5039420000    -2.8055160000
   31      C       1.5492780000     1.8493570000    -3.0545300000
   32      C       2.0026900000     2.3935290000    -1.8625510000
   33      F       2.8581910000     3.4205490000    -1.8190880000
   34      C       1.8387100000     2.1913480000    -4.4560840000
   35      O       1.3499770000     1.5964810000    -5.4065100000
   36      O       2.7010910000     3.2307050000    -4.5692250000
   37      C       3.0233270000     3.6066050000    -5.9162070000
   38      H       3.7257030000     4.4545340000    -5.8330640000
   39      H       2.1120720000     3.9100350000    -6.4701680000
   40      H       3.4952810000     2.7629960000    -6.4592930000
   41      H       2.1851740000     2.6068460000     1.3064860000
   42      H      -0.4577360000    -9.1436230000     0.7913460000
   43      H      -0.1580560000    -9.1494410000    -0.9797080000
   44      H      -0.1802050000    -1.4431750000     1.0648300000
 ----------------------------------------------------------------

   11   -2755.3165308982      7.19e-07  Convergence criterion met
 Total energy in the final basis set =    -2755.3165308982
        RIMP2         total energy =     -2760.4101238081 a.u.

                    Orbital Energies (a.u.)
 --------------------------------------------------------------

 Alpha MOs
 -- Occupied --
-92.0159 -92.0039 -91.9735 -91.9561 -26.3451 -20.6154 -20.5862 -20.5851
-20.5618 -11.4102 -11.3850 -11.3238 -11.3080 -11.3077 -11.3040 -11.2984
-11.2892 -11.2866 -11.2840 -11.2835 -11.2819 -11.2811 -11.2752 -11.2699
-11.2697 -11.2563 -11.2527 -11.2477 -11.2326  -9.0151  -9.0037  -8.9760
 -8.9587  -6.6958  -6.6950  -6.6946  -6.6847  -6.6840  -6.6829  -6.6571
 -6.6562  -6.6549  -6.6399  -6.6390  -6.6380  -1.6621  -1.4679  -1.4088
 -1.4076  -1.3706  -1.2333  -1.2008  -1.1718  -1.1395  -1.0976  -1.0469
 -1.0434  -1.0265  -1.0021  -0.9944  -0.9645  -0.9587  -0.9472  -0.9400
 -0.8917  -0.8706  -0.8625  -0.8165  -0.7975  -0.7879  -0.7830  -0.7661
 -0.7573  -0.7376  -0.7269  -0.7177  -0.6963  -0.6873  -0.6850  -0.6785
 -0.6745  -0.6606  -0.6549  -0.6474  -0.6332  -0.6297  -0.6181  -0.6141
 -0.6112  -0.6007  -0.5909  -0.5746  -0.5717  -0.5624  -0.5578  -0.5535
 -0.5405  -0.5329  -0.5313  -0.5247  -0.5119  -0.5086  -0.5062  -0.4996
 -0.4852  -0.4832  -0.4754  -0.4748  -0.4711  -0.4670  -0.4591  -0.4447
 -0.4208  -0.3984  -0.3846  -0.3682  -0.3494  -0.3066  -0.2873  -0.2182

          Ground-State Mulliken Net Atomic Charges

     Atom                 Charge (a.u.)
  ----------------------------------------
      1 C                    -0.069618
      2 C                    -0.271541
      3 S                    -0.140226
      4 C                    -0.041268
      5 H                     0.191780
      6 C                    -0.055005
      7 C                     0.223085
      8 C                     0.221116
      9 C                    -0.073555
     10 C                    -0.051726
     11 O                    -0.335586
     12 O                    -0.343243
     13 C                    -0.082530
     14 H                     0.119639
     15 H                     0.091761
     16 H                     0.092984
     17 C                    -0.086527
     18 H                     0.122810
     19 H                     0.090880
     20 H                     0.090010
     21 C                    -0.258057
     22 S                    -0.077883
     23 C                     0.011638
     24 H                     0.206435
     25 C                    -0.086218
     26 S                     0.097836
     27 C                    -0.156445
     28 C                     0.021398
     29 C                    -0.091841
     30 S                     0.032323
     31 C                    -0.154285
     32 C                     0.395575
     33 F                    -0.205311
     34 C                     0.446468
     35 O                    -0.461272
     36 O                    -0.301146
     37 C                    -0.058319
     38 H                     0.121408
     39 H                     0.095212
     40 H                     0.095355
     41 H                     0.220349
     42 H                     0.115519
     43 H                     0.113431
     44 H                     0.184589
  ----------------------------------------
  Sum of atomic charges =     0.000000

                    Cartesian Multipole Moments
 -----------------------------------------------------------------
    Charge (ESU x 10^10)
                -0.0000
    Dipole Moment (Debye)
         X       2.2558      Y       3.8113      Z       3.2801
       Tot       5.5113
    Quadrupole Moments (Debye-Ang)
        XX    -181.0228     XY       5.1460     YY    -187.7803
        XZ       3.1251     YZ      -6.1432     ZZ    -200.7898

 Total job time:  356.16s(wall), 10747.59s(cpu)
        *  Thank you very much for using Q-Chem.  Have a nice day.  *
