 Q-Chem 5.4, Q-Chem, Inc., Pleasanton, CA (2021)
 Q-Chem 5.4.0 for Intel X86 EM64T Linux

User input:
--------------------------------------------------------------
$molecule
0 1
C	-0.284919	-8.517702	-0.147685
C	0.728574	-7.641575	0.212552
S	-1.745304	-7.638634	-0.661757
C	0.374824	-6.264785	0.083761
H	1.715621	-7.966081	0.565513
C	-0.965104	-6.072714	-0.405665
C	-1.502136	-4.787049	-0.574617
C	1.214687	-5.162801	0.413763
C	0.675870	-3.874817	0.248748
C	-0.664513	-3.683952	-0.243888
O	2.464209	-5.499772	0.838511
O	-2.757750	-4.459055	-1.000176
C	-3.441858	-5.329063	-1.893778
H	-4.303826	-4.755694	-2.284868
H	-3.828743	-6.238095	-1.383341
H	-2.792824	-5.637262	-2.741817
C	3.241222	-4.572261	1.586168
H	4.108274	-5.139743	1.974033
H	2.668916	-4.153131	2.441448
H	3.620041	-3.739531	0.954660
C	-1.015668	-2.306654	-0.369302
S	1.453394	-2.306501	0.517367
C	-0.000000	-1.435185	-0.000000
H	-2.000559	-1.978138	-0.724300
C	0.000000	0.000000	0.000000
S	0.382799	0.819795	1.507541
C	1.046687	2.245325	0.718873
C	0.382918	0.819389	-1.067872
C	0.968323	2.080267	-0.686410
S	0.282561	0.597432	-2.805516
C	1.017839	2.187324	-3.054530
C	1.314960	2.830306	-1.862551
F	1.875498	4.043751	-1.819088
C	1.208895	2.592573	-4.456084
O	0.890778	1.891482	-5.406510
O	1.772886	3.819715	-4.569225
C	1.986852	4.266207	-5.916207
H	2.445834	5.267032	-5.833064
H	1.028114	4.323448	-6.470168
H	2.661066	3.573494	-6.459293
H	1.436015	3.083584	1.306486
H	-0.588198	-9.143623	0.699838
H	0.014470	-9.149441	-0.992270
H	-0.362373	-1.443175	1.017360
$end

$rem
JOBTYPE		SP
EXCHANGE	HF
CORRELATION	pRIMP2
BASIS		cc-pvtz
METHOD		rimp2
AUX_BASIS	rimp2-cc-pvtz
SOLVENT_METHOD	PCM
PURECART	11111
SYMMETRY	false
MEM_TOTAL	110000
SCF_CONVERGENCE = 6
THRESH=10
GUI = 2
$end

$solvent
dielectric 4.90
$end
--------------------------------------------------------------

             Standard Nuclear Orientation (Angstroms)
    I     Atom           X                Y                Z
 ----------------------------------------------------------------
    1      C      -0.2849190000    -8.5177020000    -0.1476850000
    2      C       0.7285740000    -7.6415750000     0.2125520000
    3      S      -1.7453040000    -7.6386340000    -0.6617570000
    4      C       0.3748240000    -6.2647850000     0.0837610000
    5      H       1.7156210000    -7.9660810000     0.5655130000
    6      C      -0.9651040000    -6.0727140000    -0.4056650000
    7      C      -1.5021360000    -4.7870490000    -0.5746170000
    8      C       1.2146870000    -5.1628010000     0.4137630000
    9      C       0.6758700000    -3.8748170000     0.2487480000
   10      C      -0.6645130000    -3.6839520000    -0.2438880000
   11      O       2.4642090000    -5.4997720000     0.8385110000
   12      O      -2.7577500000    -4.4590550000    -1.0001760000
   13      C      -3.4418580000    -5.3290630000    -1.8937780000
   14      H      -4.3038260000    -4.7556940000    -2.2848680000
   15      H      -3.8287430000    -6.2380950000    -1.3833410000
   16      H      -2.7928240000    -5.6372620000    -2.7418170000
   17      C       3.2412220000    -4.5722610000     1.5861680000
   18      H       4.1082740000    -5.1397430000     1.9740330000
   19      H       2.6689160000    -4.1531310000     2.4414480000
   20      H       3.6200410000    -3.7395310000     0.9546600000
   21      C      -1.0156680000    -2.3066540000    -0.3693020000
   22      S       1.4533940000    -2.3065010000     0.5173670000
   23      C       0.0000000000    -1.4351850000     0.0000000000
   24      H      -2.0005590000    -1.9781380000    -0.7243000000
   25      C       0.0000000000     0.0000000000     0.0000000000
   26      S       0.3827990000     0.8197950000     1.5075410000
   27      C       1.0466870000     2.2453250000     0.7188730000
   28      C       0.3829180000     0.8193890000    -1.0678720000
   29      C       0.9683230000     2.0802670000    -0.6864100000
   30      S       0.2825610000     0.5974320000    -2.8055160000
   31      C       1.0178390000     2.1873240000    -3.0545300000
   32      C       1.3149600000     2.8303060000    -1.8625510000
   33      F       1.8754980000     4.0437510000    -1.8190880000
   34      C       1.2088950000     2.5925730000    -4.4560840000
   35      O       0.8907780000     1.8914820000    -5.4065100000
   36      O       1.7728860000     3.8197150000    -4.5692250000
   37      C       1.9868520000     4.2662070000    -5.9162070000
   38      H       2.4458340000     5.2670320000    -5.8330640000
   39      H       1.0281140000     4.3234480000    -6.4701680000
   40      H       2.6610660000     3.5734940000    -6.4592930000
   41      H       1.4360150000     3.0835840000     1.3064860000
   42      H      -0.5881980000    -9.1436230000     0.6998380000
   43      H       0.0144700000    -9.1494410000    -0.9922700000
   44      H      -0.3623730000    -1.4431750000     1.0173600000
 ----------------------------------------------------------------

   11   -2755.3344030650      7.50e-07  Convergence criterion met
 Total energy in the final basis set =    -2755.3344030650
        RIMP2         total energy =     -2760.4241328785 a.u.

                    Orbital Energies (a.u.)
 --------------------------------------------------------------

 Alpha MOs
 -- Occupied --
-92.0171 -92.0003 -91.9758 -91.9570 -26.3441 -20.6151 -20.5866 -20.5859
-20.5616 -11.4098 -11.3834 -11.3161 -11.3083 -11.3054 -11.3020 -11.2982
-11.2937 -11.2890 -11.2856 -11.2840 -11.2822 -11.2821 -11.2775 -11.2715
-11.2712 -11.2572 -11.2552 -11.2486 -11.2344  -9.0158  -9.0003  -8.9782
 -8.9597  -6.6966  -6.6960  -6.6955  -6.6813  -6.6805  -6.6794  -6.6592
 -6.6584  -6.6571  -6.6409  -6.6400  -6.6390  -1.6612  -1.4676  -1.4095
 -1.4082  -1.3703  -1.2299  -1.2019  -1.1725  -1.1383  -1.0987  -1.0456
 -1.0443  -1.0252  -1.0030  -0.9958  -0.9633  -0.9589  -0.9476  -0.9402
 -0.8926  -0.8692  -0.8651  -0.8141  -0.7984  -0.7884  -0.7839  -0.7668
 -0.7569  -0.7374  -0.7260  -0.7171  -0.6969  -0.6864  -0.6847  -0.6791
 -0.6742  -0.6602  -0.6555  -0.6479  -0.6333  -0.6301  -0.6189  -0.6144
 -0.6115  -0.5997  -0.5914  -0.5749  -0.5718  -0.5636  -0.5578  -0.5532
 -0.5451  -0.5332  -0.5311  -0.5258  -0.5125  -0.5078  -0.5067  -0.5005
 -0.4850  -0.4822  -0.4755  -0.4744  -0.4719  -0.4687  -0.4598  -0.4453
 -0.4231  -0.3986  -0.3847  -0.3691  -0.3504  -0.3029  -0.2882  -0.2192

          Ground-State Mulliken Net Atomic Charges

     Atom                 Charge (a.u.)
  ----------------------------------------
      1 C                    -0.069837
      2 C                    -0.266898
      3 S                    -0.137818
      4 C                    -0.042013
      5 H                     0.192430
      6 C                    -0.053327
      7 C                     0.223370
      8 C                     0.221420
      9 C                    -0.074916
     10 C                    -0.048780
     11 O                    -0.335315
     12 O                    -0.343499
     13 C                    -0.082566
     14 H                     0.119937
     15 H                     0.091704
     16 H                     0.093164
     17 C                    -0.086667
     18 H                     0.122943
     19 H                     0.091301
     20 H                     0.090321
     21 C                    -0.254067
     22 S                    -0.071266
     23 C                     0.031028
     24 H                     0.207045
     25 C                    -0.085827
     26 S                     0.092382
     27 C                    -0.175645
     28 C                     0.029313
     29 C                    -0.101901
     30 S                     0.015665
     31 C                    -0.156220
     32 C                     0.398555
     33 F                    -0.206418
     34 C                     0.444731
     35 O                    -0.460762
     36 O                    -0.300948
     37 C                    -0.058424
     38 H                     0.121394
     39 H                     0.095157
     40 H                     0.095284
     41 H                     0.219288
     42 H                     0.116238
     43 H                     0.114110
     44 H                     0.186332
  ----------------------------------------
  Sum of atomic charges =     0.000000

                    Cartesian Multipole Moments
 -----------------------------------------------------------------
    Charge (ESU x 10^10)
                -0.0000
    Dipole Moment (Debye)
         X       1.2083      Y       3.4767      Z       3.4259
       Tot       5.0283
    Quadrupole Moments (Debye-Ang)
        XX    -187.9542     XY       3.0253     YY    -181.1177
        XZ       5.9239     YZ      -7.8628     ZZ    -198.4724

 Total job time:  324.73s(wall), 10577.78s(cpu)
        *  Thank you very much for using Q-Chem.  Have a nice day.  *
