 Q-Chem 5.4, Q-Chem, Inc., Pleasanton, CA (2021)
 Q-Chem 5.4.0 for Intel X86 EM64T Linux

User input:
--------------------------------------------------------------
$molecule
0 1
C	-0.194917	-8.517702	0.254945
C	0.335839	-7.641575	-0.680596
S	-0.954772	-7.638634	1.603876
C	0.147576	-6.264785	-0.354585
H	0.854836	-7.966081	-1.591356
C	-0.567090	-6.072714	0.879999
C	-0.826731	-4.787049	1.379534
C	0.618405	-5.162801	-1.124384
C	0.362333	-3.874817	-0.622407
C	-0.355575	-3.683952	0.612067
O	1.253677	-5.499772	-2.281166
O	-1.463859	-4.459055	2.542174
C	-2.462679	-5.329063	3.060718
H	-2.997507	-4.755694	3.841678
H	-2.027179	-6.238095	3.530361
H	-3.185132	-5.637262	2.274283
C	2.124902	-4.572261	-2.916545
H	2.657438	-5.139743	-3.703073
H	2.867810	-4.153131	-2.204417
H	1.568770	-3.739531	-3.399269
C	-0.540061	-2.306654	0.936109
S	0.761887	-2.306501	-1.341474
C	-0.000000	-1.435185	-0.000000
H	-1.060690	-1.978138	1.844392
C	0.000000	0.000000	0.000000
S	0.581934	0.692785	1.507541
C	1.592155	1.897915	0.718873
C	0.581944	0.692363	-1.067872
C	1.473741	1.758764	-0.686410
S	0.427560	0.503942	-2.805516
C	1.549278	1.849357	-3.054530
C	2.002690	2.393529	-1.862551
F	2.858191	3.420549	-1.819088
C	1.838710	2.191348	-4.456084
O	1.349977	1.596481	-5.406510
O	2.701091	3.230705	-4.569225
C	3.023327	3.606605	-5.916207
H	3.725703	4.454534	-5.833064
H	2.112072	3.910035	-6.470168
H	3.495281	2.762996	-6.459293
H	2.185174	2.606846	1.306486
H	0.587067	-9.143623	0.700788
H	-0.974683	-9.149441	-0.186556
H	0.938979	-1.443175	0.533530
$end

$rem
JOBTYPE		SP
EXCHANGE	HF
CORRELATION	pRIMP2
BASIS		cc-pvtz
METHOD		rimp2
AUX_BASIS	rimp2-cc-pvtz
SOLVENT_METHOD	PCM
PURECART	11111
SYMMETRY	false
MEM_TOTAL	110000
SCF_CONVERGENCE = 6
THRESH=10
GUI = 2
$end

$solvent
dielectric 4.90
$end
--------------------------------------------------------------

             Standard Nuclear Orientation (Angstroms)
    I     Atom           X                Y                Z
 ----------------------------------------------------------------
    1      C      -0.1949170000    -8.5177020000     0.2549450000
    2      C       0.3358390000    -7.6415750000    -0.6805960000
    3      S      -0.9547720000    -7.6386340000     1.6038760000
    4      C       0.1475760000    -6.2647850000    -0.3545850000
    5      H       0.8548360000    -7.9660810000    -1.5913560000
    6      C      -0.5670900000    -6.0727140000     0.8799990000
    7      C      -0.8267310000    -4.7870490000     1.3795340000
    8      C       0.6184050000    -5.1628010000    -1.1243840000
    9      C       0.3623330000    -3.8748170000    -0.6224070000
   10      C      -0.3555750000    -3.6839520000     0.6120670000
   11      O       1.2536770000    -5.4997720000    -2.2811660000
   12      O      -1.4638590000    -4.4590550000     2.5421740000
   13      C      -2.4626790000    -5.3290630000     3.0607180000
   14      H      -2.9975070000    -4.7556940000     3.8416780000
   15      H      -2.0271790000    -6.2380950000     3.5303610000
   16      H      -3.1851320000    -5.6372620000     2.2742830000
   17      C       2.1249020000    -4.5722610000    -2.9165450000
   18      H       2.6574380000    -5.1397430000    -3.7030730000
   19      H       2.8678100000    -4.1531310000    -2.2044170000
   20      H       1.5687700000    -3.7395310000    -3.3992690000
   21      C      -0.5400610000    -2.3066540000     0.9361090000
   22      S       0.7618870000    -2.3065010000    -1.3414740000
   23      C       0.0000000000    -1.4351850000     0.0000000000
   24      H      -1.0606900000    -1.9781380000     1.8443920000
   25      C       0.0000000000     0.0000000000     0.0000000000
   26      S       0.5819340000     0.6927850000     1.5075410000
   27      C       1.5921550000     1.8979150000     0.7188730000
   28      C       0.5819440000     0.6923630000    -1.0678720000
   29      C       1.4737410000     1.7587640000    -0.6864100000
   30      S       0.4275600000     0.5039420000    -2.8055160000
   31      C       1.5492780000     1.8493570000    -3.0545300000
   32      C       2.0026900000     2.3935290000    -1.8625510000
   33      F       2.8581910000     3.4205490000    -1.8190880000
   34      C       1.8387100000     2.1913480000    -4.4560840000
   35      O       1.3499770000     1.5964810000    -5.4065100000
   36      O       2.7010910000     3.2307050000    -4.5692250000
   37      C       3.0233270000     3.6066050000    -5.9162070000
   38      H       3.7257030000     4.4545340000    -5.8330640000
   39      H       2.1120720000     3.9100350000    -6.4701680000
   40      H       3.4952810000     2.7629960000    -6.4592930000
   41      H       2.1851740000     2.6068460000     1.3064860000
   42      H       0.5870670000    -9.1436230000     0.7007880000
   43      H      -0.9746830000    -9.1494410000    -0.1865560000
   44      H       0.9389790000    -1.4431750000     0.5335300000
 ----------------------------------------------------------------

   11   -2755.3120170800      8.05e-07  Convergence criterion met
 Total energy in the final basis set =    -2755.3120170800
        RIMP2         total energy =     -2760.4104946128 a.u.

                    Orbital Energies (a.u.)
 --------------------------------------------------------------

 Alpha MOs
 -- Occupied --
-92.0094 -91.9979 -91.9762 -91.9584 -26.3434 -20.6151 -20.5872 -20.5868
-20.5617 -11.4097 -11.3826 -11.3150 -11.3086 -11.3079 -11.3007 -11.2976
-11.2976 -11.2891 -11.2858 -11.2838 -11.2829 -11.2810 -11.2785 -11.2730
-11.2685 -11.2582 -11.2575 -11.2500 -11.2379  -9.0093  -8.9981  -8.9785
 -8.9610  -6.6901  -6.6893  -6.6888  -6.6791  -6.6783  -6.6772  -6.6595
 -6.6587  -6.6573  -6.6422  -6.6413  -6.6403  -1.6606  -1.4675  -1.4103
 -1.4089  -1.3703  -1.2352  -1.2006  -1.1740  -1.1392  -1.0991  -1.0482
 -1.0441  -1.0263  -1.0027  -0.9955  -0.9647  -0.9564  -0.9491  -0.9417
 -0.8933  -0.8691  -0.8622  -0.8170  -0.7931  -0.7890  -0.7832  -0.7686
 -0.7565  -0.7375  -0.7255  -0.7147  -0.6961  -0.6907  -0.6849  -0.6808
 -0.6741  -0.6639  -0.6555  -0.6484  -0.6367  -0.6302  -0.6203  -0.6152
 -0.6109  -0.6003  -0.5926  -0.5773  -0.5707  -0.5652  -0.5596  -0.5574
 -0.5446  -0.5332  -0.5311  -0.5250  -0.5133  -0.5117  -0.5074  -0.5010
 -0.4841  -0.4810  -0.4764  -0.4734  -0.4692  -0.4652  -0.4569  -0.4468
 -0.4292  -0.3916  -0.3851  -0.3695  -0.3530  -0.2986  -0.2880  -0.2172

          Ground-State Mulliken Net Atomic Charges

     Atom                 Charge (a.u.)
  ----------------------------------------
      1 C                    -0.070476
      2 C                    -0.256646
      3 S                    -0.135355
      4 C                    -0.049107
      5 H                     0.193937
      6 C                    -0.048785
      7 C                     0.215250
      8 C                     0.226546
      9 C                    -0.075143
     10 C                    -0.020657
     11 O                    -0.334550
     12 O                    -0.343508
     13 C                    -0.082747
     14 H                     0.119729
     15 H                     0.091908
     16 H                     0.093080
     17 C                    -0.089221
     18 H                     0.123989
     19 H                     0.091830
     20 H                     0.092293
     21 C                    -0.332379
     22 S                    -0.093302
     23 C                     0.122237
     24 H                     0.201279
     25 C                    -0.029694
     26 S                     0.075909
     27 C                    -0.180864
     28 C                    -0.074883
     29 C                    -0.081951
     30 S                     0.027639
     31 C                    -0.154318
     32 C                     0.400003
     33 F                    -0.207156
     34 C                     0.444355
     35 O                    -0.460394
     36 O                    -0.300760
     37 C                    -0.058509
     38 H                     0.121415
     39 H                     0.095314
     40 H                     0.094995
     41 H                     0.217733
     42 H                     0.117765
     43 H                     0.115498
     44 H                     0.197702
  ----------------------------------------
  Sum of atomic charges =     0.000000

                    Cartesian Multipole Moments
 -----------------------------------------------------------------
    Charge (ESU x 10^10)
                -0.0000
    Dipole Moment (Debye)
         X       2.5755      Y       2.0322      Z       2.8341
       Tot       4.3353
    Quadrupole Moments (Debye-Ang)
        XX    -184.6132     XY       5.9779     YY    -179.7694
        XZ     -14.0359     YZ      -1.9400     ZZ    -197.8957

 Total job time:  325.03s(wall), 10162.46s(cpu)
        *  Thank you very much for using Q-Chem.  Have a nice day.  *
