 Q-Chem 5.4, Q-Chem, Inc., Pleasanton, CA (2021)
 Q-Chem 5.4.0 for Intel X86 EM64T Linux

User input:
--------------------------------------------------------------
$molecule
0 1
C	-0.318247	-8.517702	-0.041330
C	0.757333	-7.641575	-0.049453
S	-1.866383	-7.638634	-0.024919
C	0.380867	-6.264785	-0.049488
H	1.805573	-7.966081	-0.055368
C	-1.045647	-6.072714	-0.051115
C	-1.608077	-4.787049	-0.026203
C	1.282948	-5.162801	-0.026637
C	0.720187	-3.874817	0.002586
C	-0.707853	-3.683952	-0.001903
O	2.602386	-5.499772	-0.054867
O	-2.933517	-4.459055	0.003348
C	-3.881999	-5.329063	-0.602384
H	-4.825744	-4.755694	-0.675079
H	-4.070972	-6.238095	0.009592
H	-3.562152	-5.637262	-1.621263
C	3.588253	-4.572261	0.381947
H	4.535674	-5.139743	0.449872
H	3.342986	-4.153131	1.381388
H	3.728239	-3.739531	-0.341040
C	-1.080725	-2.306654	0.000348
S	1.542694	-2.306501	-0.010924
C	0.000000	-1.435185	0.000000
H	-2.127635	-1.978138	0.003612
C	0.000000	0.000000	0.000000
S	0.452792	0.783312	1.507541
C	1.238397	2.145556	0.718873
C	0.452875	0.782898	-1.067872
C	1.145945	1.987956	-0.686410
S	0.333556	0.570531	-2.805516
C	1.204604	2.090290	-3.054530
C	1.556633	2.704929	-1.862551
F	2.220797	3.864903	-1.819088
C	1.430252	2.477345	-4.456084
O	1.052242	1.806648	-5.406510
O	2.099050	3.650663	-4.569225
C	2.351116	4.076808	-5.916207
H	2.895579	5.033821	-5.833064
H	1.401015	4.217390	-6.470168
H	2.962391	3.327969	-6.459293
H	1.699302	2.946693	1.306486
H	-0.313367	-9.143623	0.858809
H	-0.325780	-9.149441	-0.937378
H	0.007439	-1.443175	1.079945
$end

$rem
JOBTYPE		SP
EXCHANGE	HF
CORRELATION	pRIMP2
BASIS		cc-pvtz
METHOD		rimp2
AUX_BASIS	rimp2-cc-pvtz
SOLVENT_METHOD	PCM
PURECART	11111
SYMMETRY	false
MEM_TOTAL	110000
SCF_CONVERGENCE = 6
THRESH=10
GUI = 2
$end

$solvent
dielectric 4.90
$end
--------------------------------------------------------------

             Standard Nuclear Orientation (Angstroms)
    I     Atom           X                Y                Z
 ----------------------------------------------------------------
    1      C      -0.3182470000    -8.5177020000    -0.0413300000
    2      C       0.7573330000    -7.6415750000    -0.0494530000
    3      S      -1.8663830000    -7.6386340000    -0.0249190000
    4      C       0.3808670000    -6.2647850000    -0.0494880000
    5      H       1.8055730000    -7.9660810000    -0.0553680000
    6      C      -1.0456470000    -6.0727140000    -0.0511150000
    7      C      -1.6080770000    -4.7870490000    -0.0262030000
    8      C       1.2829480000    -5.1628010000    -0.0266370000
    9      C       0.7201870000    -3.8748170000     0.0025860000
   10      C      -0.7078530000    -3.6839520000    -0.0019030000
   11      O       2.6023860000    -5.4997720000    -0.0548670000
   12      O      -2.9335170000    -4.4590550000     0.0033480000
   13      C      -3.8819990000    -5.3290630000    -0.6023840000
   14      H      -4.8257440000    -4.7556940000    -0.6750790000
   15      H      -4.0709720000    -6.2380950000     0.0095920000
   16      H      -3.5621520000    -5.6372620000    -1.6212630000
   17      C       3.5882530000    -4.5722610000     0.3819470000
   18      H       4.5356740000    -5.1397430000     0.4498720000
   19      H       3.3429860000    -4.1531310000     1.3813880000
   20      H       3.7282390000    -3.7395310000    -0.3410400000
   21      C      -1.0807250000    -2.3066540000     0.0003480000
   22      S       1.5426940000    -2.3065010000    -0.0109240000
   23      C       0.0000000000    -1.4351850000     0.0000000000
   24      H      -2.1276350000    -1.9781380000     0.0036120000
   25      C       0.0000000000     0.0000000000     0.0000000000
   26      S       0.4527920000     0.7833120000     1.5075410000
   27      C       1.2383970000     2.1455560000     0.7188730000
   28      C       0.4528750000     0.7828980000    -1.0678720000
   29      C       1.1459450000     1.9879560000    -0.6864100000
   30      S       0.3335560000     0.5705310000    -2.8055160000
   31      C       1.2046040000     2.0902900000    -3.0545300000
   32      C       1.5566330000     2.7049290000    -1.8625510000
   33      F       2.2207970000     3.8649030000    -1.8190880000
   34      C       1.4302520000     2.4773450000    -4.4560840000
   35      O       1.0522420000     1.8066480000    -5.4065100000
   36      O       2.0990500000     3.6506630000    -4.5692250000
   37      C       2.3511160000     4.0768080000    -5.9162070000
   38      H       2.8955790000     5.0338210000    -5.8330640000
   39      H       1.4010150000     4.2173900000    -6.4701680000
   40      H       2.9623910000     3.3279690000    -6.4592930000
   41      H       1.6993020000     2.9466930000     1.3064860000
   42      H      -0.3133670000    -9.1436230000     0.8588090000
   43      H      -0.3257800000    -9.1494410000    -0.9373780000
   44      H       0.0074390000    -1.4431750000     1.0799450000
 ----------------------------------------------------------------

   11   -2755.3291825973      7.27e-07  Convergence criterion met
 Total energy in the final basis set =    -2755.3291825973
        RIMP2         total energy =     -2760.4197252484 a.u.

                    Orbital Energies (a.u.)
 --------------------------------------------------------------

 Alpha MOs
 -- Occupied --
-92.0166 -92.0012 -91.9753 -91.9566 -26.3444 -20.6152 -20.5865 -20.5855
-20.5616 -11.4098 -11.3839 -11.3184 -11.3081 -11.3050 -11.3041 -11.2982
-11.2911 -11.2891 -11.2860 -11.2837 -11.2822 -11.2817 -11.2767 -11.2705
-11.2705 -11.2568 -11.2539 -11.2482 -11.2337  -9.0155  -9.0012  -8.9776
 -8.9593  -6.6962  -6.6956  -6.6951  -6.6822  -6.6814  -6.6804  -6.6587
 -6.6578  -6.6565  -6.6405  -6.6396  -6.6385  -1.6615  -1.4676  -1.4092
 -1.4080  -1.3703  -1.2311  -1.2014  -1.1722  -1.1387  -1.0982  -1.0461
 -1.0437  -1.0258  -1.0026  -0.9951  -0.9638  -0.9584  -0.9475  -0.9402
 -0.8922  -0.8697  -0.8641  -0.8157  -0.7972  -0.7884  -0.7835  -0.7666
 -0.7570  -0.7376  -0.7263  -0.7174  -0.6964  -0.6868  -0.6848  -0.6788
 -0.6742  -0.6604  -0.6552  -0.6477  -0.6333  -0.6296  -0.6186  -0.6143
 -0.6111  -0.6000  -0.5912  -0.5744  -0.5726  -0.5627  -0.5585  -0.5544
 -0.5436  -0.5329  -0.5313  -0.5243  -0.5121  -0.5082  -0.5065  -0.5001
 -0.4853  -0.4825  -0.4756  -0.4743  -0.4698  -0.4683  -0.4600  -0.4453
 -0.4214  -0.3996  -0.3841  -0.3688  -0.3505  -0.3043  -0.2881  -0.2191

          Ground-State Mulliken Net Atomic Charges

     Atom                 Charge (a.u.)
  ----------------------------------------
      1 C                    -0.069634
      2 C                    -0.268433
      3 S                    -0.139221
      4 C                    -0.041870
      5 H                     0.192317
      6 C                    -0.054950
      7 C                     0.224405
      8 C                     0.221515
      9 C                    -0.072969
     10 C                    -0.048508
     11 O                    -0.335162
     12 O                    -0.343162
     13 C                    -0.082501
     14 H                     0.119705
     15 H                     0.091704
     16 H                     0.093062
     17 C                    -0.086688
     18 H                     0.122915
     19 H                     0.091172
     20 H                     0.090447
     21 C                    -0.260295
     22 S                    -0.071774
     23 C                     0.028011
     24 H                     0.205139
     25 C                    -0.055784
     26 S                     0.094470
     27 C                    -0.174159
     28 C                    -0.016886
     29 C                    -0.082941
     30 S                     0.023693
     31 C                    -0.155340
     32 C                     0.394957
     33 F                    -0.205938
     34 C                     0.445783
     35 O                    -0.460805
     36 O                    -0.301034
     37 C                    -0.058365
     38 H                     0.121396
     39 H                     0.095164
     40 H                     0.095290
     41 H                     0.219783
     42 H                     0.115885
     43 H                     0.113805
     44 H                     0.185801
  ----------------------------------------
  Sum of atomic charges =     0.000000

                    Cartesian Multipole Moments
 -----------------------------------------------------------------
    Charge (ESU x 10^10)
                 0.0000
    Dipole Moment (Debye)
         X       1.7133      Y       3.6322      Z       3.3673
       Tot       5.2409
    Quadrupole Moments (Debye-Ang)
        XX    -181.4535     XY       3.6481     YY    -183.4536
        XZ       2.0157     YZ      -6.2910     ZZ    -203.6081

 Total job time:  344.73s(wall), 10937.16s(cpu)
        *  Thank you very much for using Q-Chem.  Have a nice day.  *
