 Q-Chem 5.4, Q-Chem, Inc., Pleasanton, CA (2021)
 Q-Chem 5.4.0 for Intel X86 EM64T Linux

User input:
--------------------------------------------------------------
$molecule
0 1
C	0.172904	-8.517702	0.270358
C	-0.524688	-7.641575	-0.548363
S	1.180599	-7.638634	1.445750
C	-0.282727	-6.264785	-0.259951
H	-1.203014	-7.966081	-1.347559
C	0.632972	-6.072714	0.833868
C	1.013580	-4.787049	1.248701
C	-0.845068	-5.162801	-0.965673
C	-0.460946	-3.874817	-0.553357
C	0.453541	-3.683952	0.543470
O	-1.714812	-5.499772	-1.958276
O	1.888193	-4.459055	2.245053
C	2.033848	-5.329063	3.360989
H	2.584788	-4.755694	4.130667
H	2.624118	-6.238095	3.112380
H	1.047748	-5.637262	3.770895
C	-2.013896	-4.572261	-2.994272
H	-2.570853	-5.139743	-3.763700
H	-1.090625	-4.153131	-3.448815
H	-2.657717	-3.739531	-2.636780
C	0.694943	-2.306654	0.827659
S	-0.999993	-2.306501	-1.174750
C	0.000000	-1.435185	0.000000
H	1.370385	-1.978138	1.627541
C	0.000000	0.000000	0.000000
S	0.000474	0.904764	1.507541
C	-0.000295	2.477305	0.718873
C	0.000752	0.904447	-1.067872
C	-0.001560	2.294593	-0.686410
S	0.003602	0.660872	-2.805516
C	-0.001928	2.412546	-3.054530
C	-0.004381	3.120854	-1.862551
F	-0.009185	4.457503	-1.819088
C	-0.000038	2.860570	-4.456084
O	0.007944	2.090724	-5.406510
O	-0.007501	4.211092	-4.569225
C	-0.002278	4.706177	-5.916207
H	-0.009265	5.807207	-5.833064
H	-0.895381	4.352875	-6.470168
H	0.901521	4.363301	-6.459293
H	-0.001708	3.401562	1.306486
H	0.859314	-9.143623	-0.311979
H	-0.508666	-9.149441	0.852097
H	0.822504	-1.443175	-0.699874
$end

$rem
JOBTYPE		SP
EXCHANGE	HF
CORRELATION	pRIMP2
BASIS		cc-pvtz
METHOD		rimp2
AUX_BASIS	rimp2-cc-pvtz
SOLVENT_METHOD	PCM
PURECART	11111
SYMMETRY	false
MEM_TOTAL	110000
SCF_CONVERGENCE = 6
THRESH=10
GUI = 2
$end

$solvent
dielectric 4.90
$end
--------------------------------------------------------------

             Standard Nuclear Orientation (Angstroms)
    I     Atom           X                Y                Z
 ----------------------------------------------------------------
    1      C       0.1729040000    -8.5177020000     0.2703580000
    2      C      -0.5246880000    -7.6415750000    -0.5483630000
    3      S       1.1805990000    -7.6386340000     1.4457500000
    4      C      -0.2827270000    -6.2647850000    -0.2599510000
    5      H      -1.2030140000    -7.9660810000    -1.3475590000
    6      C       0.6329720000    -6.0727140000     0.8338680000
    7      C       1.0135800000    -4.7870490000     1.2487010000
    8      C      -0.8450680000    -5.1628010000    -0.9656730000
    9      C      -0.4609460000    -3.8748170000    -0.5533570000
   10      C       0.4535410000    -3.6839520000     0.5434700000
   11      O      -1.7148120000    -5.4997720000    -1.9582760000
   12      O       1.8881930000    -4.4590550000     2.2450530000
   13      C       2.0338480000    -5.3290630000     3.3609890000
   14      H       2.5847880000    -4.7556940000     4.1306670000
   15      H       2.6241180000    -6.2380950000     3.1123800000
   16      H       1.0477480000    -5.6372620000     3.7708950000
   17      C      -2.0138960000    -4.5722610000    -2.9942720000
   18      H      -2.5708530000    -5.1397430000    -3.7637000000
   19      H      -1.0906250000    -4.1531310000    -3.4488150000
   20      H      -2.6577170000    -3.7395310000    -2.6367800000
   21      C       0.6949430000    -2.3066540000     0.8276590000
   22      S      -0.9999930000    -2.3065010000    -1.1747500000
   23      C       0.0000000000    -1.4351850000     0.0000000000
   24      H       1.3703850000    -1.9781380000     1.6275410000
   25      C       0.0000000000     0.0000000000     0.0000000000
   26      S       0.0004740000     0.9047640000     1.5075410000
   27      C      -0.0002950000     2.4773050000     0.7188730000
   28      C       0.0007520000     0.9044470000    -1.0678720000
   29      C      -0.0015600000     2.2945930000    -0.6864100000
   30      S       0.0036020000     0.6608720000    -2.8055160000
   31      C      -0.0019280000     2.4125460000    -3.0545300000
   32      C      -0.0043810000     3.1208540000    -1.8625510000
   33      F      -0.0091850000     4.4575030000    -1.8190880000
   34      C      -0.0000380000     2.8605700000    -4.4560840000
   35      O       0.0079440000     2.0907240000    -5.4065100000
   36      O      -0.0075010000     4.2110920000    -4.5692250000
   37      C      -0.0022780000     4.7061770000    -5.9162070000
   38      H      -0.0092650000     5.8072070000    -5.8330640000
   39      H      -0.8953810000     4.3528750000    -6.4701680000
   40      H       0.9015210000     4.3633010000    -6.4592930000
   41      H      -0.0017080000     3.4015620000     1.3064860000
   42      H       0.8593140000    -9.1436230000    -0.3119790000
   43      H      -0.5086660000    -9.1494410000     0.8520970000
   44      H       0.8225040000    -1.4431750000    -0.6998740000
 ----------------------------------------------------------------

   11   -2755.3465847390      7.71e-07  Convergence criterion met
 Total energy in the final basis set =    -2755.3465847390
        RIMP2         total energy =     -2760.4366256867 a.u.

                    Orbital Energies (a.u.)
 --------------------------------------------------------------

 Alpha MOs
 -- Occupied --
-92.0138 -91.9975 -91.9790 -91.9592 -26.3431 -20.6150 -20.5878 -20.5876
-20.5615 -11.4095 -11.3821 -11.3097 -11.3090 -11.3079 -11.3038 -11.2977
-11.2961 -11.2889 -11.2849 -11.2843 -11.2840 -11.2834 -11.2823 -11.2744
-11.2730 -11.2599 -11.2590 -11.2506 -11.2388  -9.0124  -8.9976  -8.9813
 -8.9618  -6.6932  -6.6926  -6.6921  -6.6786  -6.6779  -6.6768  -6.6624
 -6.6615  -6.6602  -6.6430  -6.6421  -6.6411  -1.6602  -1.4674  -1.4110
 -1.4096  -1.3701  -1.2295  -1.2028  -1.1746  -1.1367  -1.1013  -1.0477
 -1.0446  -1.0234  -1.0045  -0.9978  -0.9635  -0.9573  -0.9491  -0.9417
 -0.8942  -0.8707  -0.8649  -0.8151  -0.7926  -0.7900  -0.7852  -0.7692
 -0.7578  -0.7363  -0.7251  -0.7090  -0.6990  -0.6954  -0.6848  -0.6809
 -0.6740  -0.6645  -0.6560  -0.6490  -0.6359  -0.6315  -0.6209  -0.6156
 -0.6111  -0.5993  -0.5931  -0.5769  -0.5709  -0.5649  -0.5592  -0.5572
 -0.5498  -0.5317  -0.5307  -0.5256  -0.5141  -0.5099  -0.5077  -0.5013
 -0.4859  -0.4802  -0.4772  -0.4741  -0.4722  -0.4658  -0.4610  -0.4468
 -0.4301  -0.3961  -0.3859  -0.3707  -0.3501  -0.2985  -0.2895  -0.2196

          Ground-State Mulliken Net Atomic Charges

     Atom                 Charge (a.u.)
  ----------------------------------------
      1 C                    -0.070446
      2 C                    -0.253913
      3 S                    -0.133477
      4 C                    -0.046113
      5 H                     0.194349
      6 C                    -0.050904
      7 C                     0.223679
      8 C                     0.229579
      9 C                    -0.077708
     10 C                    -0.052724
     11 O                    -0.334592
     12 O                    -0.343897
     13 C                    -0.082790
     14 H                     0.120041
     15 H                     0.092321
     16 H                     0.092855
     17 C                    -0.088117
     18 H                     0.123648
     19 H                     0.093821
     20 H                     0.090529
     21 C                    -0.271666
     22 S                    -0.079400
     23 C                     0.096743
     24 H                     0.205501
     25 C                    -0.041611
     26 S                     0.086018
     27 C                    -0.199666
     28 C                    -0.027690
     29 C                    -0.111368
     30 S                    -0.001862
     31 C                    -0.156460
     32 C                     0.398272
     33 F                    -0.207086
     34 C                     0.444574
     35 O                    -0.460737
     36 O                    -0.300526
     37 C                    -0.058734
     38 H                     0.121485
     39 H                     0.095163
     40 H                     0.095054
     41 H                     0.216394
     42 H                     0.118227
     43 H                     0.115758
     44 H                     0.197476
  ----------------------------------------
  Sum of atomic charges =     0.000000

                    Cartesian Multipole Moments
 -----------------------------------------------------------------
    Charge (ESU x 10^10)
                 0.0000
    Dipole Moment (Debye)
         X       0.3249      Y       2.0296      Z       2.4527
       Tot       3.2001
    Quadrupole Moments (Debye-Ang)
        XX    -199.4822     XY       2.5725     YY    -171.7309
        XZ       6.4645     YZ      -4.5587     ZZ    -190.2925

 Total job time:  322.82s(wall), 10535.82s(cpu)
        *  Thank you very much for using Q-Chem.  Have a nice day.  *
