 Q-Chem 5.4, Q-Chem, Inc., Pleasanton, CA (2021)
 Q-Chem 5.4.0 for Intel X86 EM64T Linux

User input:
--------------------------------------------------------------
$molecule
0 1
C	0.217225	-8.517702	0.236226
C	-0.611939	-7.641575	-0.448921
S	1.413715	-7.638634	1.218777
C	-0.323572	-6.264785	-0.206907
H	-1.418739	-7.966081	-1.118185
C	0.768156	-6.072714	0.711285
C	1.215016	-4.787049	1.053725
C	-0.999917	-5.162801	-0.804258
C	-0.550033	-3.874817	-0.464908
C	0.541024	-3.683952	0.456457
O	-2.028811	-5.499772	-1.630752
O	2.249357	-4.459055	1.883064
C	2.586579	-5.329063	2.956754
H	3.262802	-4.755694	3.619069
H	3.124711	-6.238095	2.609423
H	1.686639	-5.637262	3.531667
C	-2.503251	-4.572261	-2.599073
H	-3.185356	-5.139743	-3.260097
H	-1.672937	-4.153131	-3.207034
H	-3.075213	-3.739531	-2.135214
C	0.828107	-2.306654	0.694410
S	-1.188794	-2.306501	-0.983256
C	0.000000	-1.435185	0.000000
H	1.632185	-1.978138	1.364851
C	0.000000	0.000000	0.000000
S	0.000474	0.904764	1.507541
C	-0.000295	2.477305	0.718873
C	0.000752	0.904447	-1.067872
C	-0.001560	2.294593	-0.686410
S	0.003602	0.660872	-2.805516
C	-0.001928	2.412546	-3.054530
C	-0.004381	3.120854	-1.862551
F	-0.009185	4.457503	-1.819088
C	-0.000038	2.860570	-4.456084
O	0.007944	2.090724	-5.406510
O	-0.007501	4.211092	-4.569225
C	-0.002278	4.706177	-5.916207
H	-0.009265	5.807207	-5.833064
H	-0.895381	4.352875	-6.470168
H	0.901521	4.363301	-6.459293
H	-0.001708	3.401562	1.306486
H	0.792084	-9.143623	-0.456457
H	-0.352973	-9.149441	0.927480
H	0.688477	-1.443175	-0.832067
$end

$rem
JOBTYPE		SP
EXCHANGE	HF
CORRELATION	pRIMP2
BASIS		cc-pvtz
METHOD		rimp2
AUX_BASIS	rimp2-cc-pvtz
SOLVENT_METHOD	PCM
PURECART	11111
SYMMETRY	false
MEM_TOTAL	110000
SCF_CONVERGENCE = 6
THRESH=10
GUI = 2
$end

$solvent
dielectric 4.90
$end
--------------------------------------------------------------

             Standard Nuclear Orientation (Angstroms)
    I     Atom           X                Y                Z
 ----------------------------------------------------------------
    1      C       0.2172250000    -8.5177020000     0.2362260000
    2      C      -0.6119390000    -7.6415750000    -0.4489210000
    3      S       1.4137150000    -7.6386340000     1.2187770000
    4      C      -0.3235720000    -6.2647850000    -0.2069070000
    5      H      -1.4187390000    -7.9660810000    -1.1181850000
    6      C       0.7681560000    -6.0727140000     0.7112850000
    7      C       1.2150160000    -4.7870490000     1.0537250000
    8      C      -0.9999170000    -5.1628010000    -0.8042580000
    9      C      -0.5500330000    -3.8748170000    -0.4649080000
   10      C       0.5410240000    -3.6839520000     0.4564570000
   11      O      -2.0288110000    -5.4997720000    -1.6307520000
   12      O       2.2493570000    -4.4590550000     1.8830640000
   13      C       2.5865790000    -5.3290630000     2.9567540000
   14      H       3.2628020000    -4.7556940000     3.6190690000
   15      H       3.1247110000    -6.2380950000     2.6094230000
   16      H       1.6866390000    -5.6372620000     3.5316670000
   17      C      -2.5032510000    -4.5722610000    -2.5990730000
   18      H      -3.1853560000    -5.1397430000    -3.2600970000
   19      H      -1.6729370000    -4.1531310000    -3.2070340000
   20      H      -3.0752130000    -3.7395310000    -2.1352140000
   21      C       0.8281070000    -2.3066540000     0.6944100000
   22      S      -1.1887940000    -2.3065010000    -0.9832560000
   23      C       0.0000000000    -1.4351850000     0.0000000000
   24      H       1.6321850000    -1.9781380000     1.3648510000
   25      C       0.0000000000     0.0000000000     0.0000000000
   26      S       0.0004740000     0.9047640000     1.5075410000
   27      C      -0.0002950000     2.4773050000     0.7188730000
   28      C       0.0007520000     0.9044470000    -1.0678720000
   29      C      -0.0015600000     2.2945930000    -0.6864100000
   30      S       0.0036020000     0.6608720000    -2.8055160000
   31      C      -0.0019280000     2.4125460000    -3.0545300000
   32      C      -0.0043810000     3.1208540000    -1.8625510000
   33      F      -0.0091850000     4.4575030000    -1.8190880000
   34      C      -0.0000380000     2.8605700000    -4.4560840000
   35      O       0.0079440000     2.0907240000    -5.4065100000
   36      O      -0.0075010000     4.2110920000    -4.5692250000
   37      C      -0.0022780000     4.7061770000    -5.9162070000
   38      H      -0.0092650000     5.8072070000    -5.8330640000
   39      H      -0.8953810000     4.3528750000    -6.4701680000
   40      H       0.9015210000     4.3633010000    -6.4592930000
   41      H      -0.0017080000     3.4015620000     1.3064860000
   42      H       0.7920840000    -9.1436230000    -0.4564570000
   43      H      -0.3529730000    -9.1494410000     0.9274800000
   44      H       0.6884770000    -1.4431750000    -0.8320670000
 ----------------------------------------------------------------

   11   -2755.3474288441      7.44e-07  Convergence criterion met
 Total energy in the final basis set =    -2755.3474288441
        RIMP2         total energy =     -2760.4367796137 a.u.

                    Orbital Energies (a.u.)
 --------------------------------------------------------------

 Alpha MOs
 -- Occupied --
-92.0133 -91.9985 -91.9780 -91.9589 -26.3436 -20.6151 -20.5876 -20.5872
-20.5616 -11.4097 -11.3828 -11.3094 -11.3082 -11.3063 -11.3060 -11.2985
-11.2981 -11.2890 -11.2851 -11.2841 -11.2835 -11.2833 -11.2815 -11.2740
-11.2726 -11.2593 -11.2587 -11.2503 -11.2382  -9.0120  -8.9986  -8.9803
 -8.9615  -6.6927  -6.6921  -6.6916  -6.6797  -6.6789  -6.6778  -6.6614
 -6.6605  -6.6592  -6.6427  -6.6418  -6.6408  -1.6606  -1.4676  -1.4107
 -1.4094  -1.3703  -1.2294  -1.2027  -1.1742  -1.1368  -1.1011  -1.0473
 -1.0448  -1.0234  -1.0042  -0.9975  -0.9634  -0.9575  -0.9488  -0.9416
 -0.8938  -0.8708  -0.8650  -0.8150  -0.7930  -0.7899  -0.7852  -0.7689
 -0.7582  -0.7359  -0.7255  -0.7092  -0.6999  -0.6951  -0.6850  -0.6805
 -0.6741  -0.6647  -0.6558  -0.6488  -0.6352  -0.6313  -0.6206  -0.6154
 -0.6111  -0.5992  -0.5929  -0.5772  -0.5706  -0.5646  -0.5587  -0.5571
 -0.5497  -0.5316  -0.5305  -0.5253  -0.5137  -0.5094  -0.5075  -0.5014
 -0.4861  -0.4798  -0.4777  -0.4742  -0.4726  -0.4661  -0.4608  -0.4465
 -0.4285  -0.3967  -0.3859  -0.3703  -0.3502  -0.2992  -0.2897  -0.2200

          Ground-State Mulliken Net Atomic Charges

     Atom                 Charge (a.u.)
  ----------------------------------------
      1 C                    -0.070358
      2 C                    -0.255770
      3 S                    -0.134142
      4 C                    -0.045562
      5 H                     0.194077
      6 C                    -0.050772
      7 C                     0.223575
      8 C                     0.228840
      9 C                    -0.078508
     10 C                    -0.056051
     11 O                    -0.334909
     12 O                    -0.343815
     13 C                    -0.082726
     14 H                     0.120030
     15 H                     0.092161
     16 H                     0.092835
     17 C                    -0.087706
     18 H                     0.123312
     19 H                     0.093718
     20 H                     0.090277
     21 C                    -0.258434
     22 S                    -0.073730
     23 C                     0.079537
     24 H                     0.207596
     25 C                    -0.054648
     26 S                     0.087480
     27 C                    -0.192509
     28 C                    -0.018452
     29 C                    -0.112077
     30 S                     0.001112
     31 C                    -0.155366
     32 C                     0.397564
     33 F                    -0.206599
     34 C                     0.444784
     35 O                    -0.460834
     36 O                    -0.300587
     37 C                    -0.058688
     38 H                     0.121504
     39 H                     0.095185
     40 H                     0.095101
     41 H                     0.216783
     42 H                     0.117946
     43 H                     0.115563
     44 H                     0.193262
  ----------------------------------------
  Sum of atomic charges =     0.000000

                    Cartesian Multipole Moments
 -----------------------------------------------------------------
    Charge (ESU x 10^10)
                -0.0000
    Dipole Moment (Debye)
         X       0.2285      Y       2.3511      Z       2.4140
       Tot       3.3775
    Quadrupole Moments (Debye-Ang)
        XX    -196.9539     XY       2.9985     YY    -172.6378
        XZ       8.3912     YZ      -5.1764     ZZ    -192.8227

 Total job time:  321.06s(wall), 10505.61s(cpu)
        *  Thank you very much for using Q-Chem.  Have a nice day.  *
