 Q-Chem 5.4, Q-Chem, Inc., Pleasanton, CA (2021)
 Q-Chem 5.4.0 for Intel X86 EM64T Linux

User input:
--------------------------------------------------------------
$molecule
0 1
C	0.254945	-8.517702	0.194917
C	-0.680596	-7.641575	-0.335839
S	1.603876	-7.638634	0.954772
C	-0.354585	-6.264785	-0.147576
H	-1.591356	-7.966081	-0.854836
C	0.879999	-6.072714	0.567090
C	1.379534	-4.787049	0.826731
C	-1.124384	-5.162801	-0.618405
C	-0.622407	-3.874817	-0.362333
C	0.612067	-3.683952	0.355575
O	-2.281166	-5.499772	-1.253677
O	2.542174	-4.459055	1.463859
C	3.060718	-5.329063	2.462679
H	3.841678	-4.755694	2.997507
H	3.530361	-6.238095	2.027179
H	2.274283	-5.637262	3.185132
C	-2.916545	-4.572261	-2.124902
H	-3.703073	-5.139743	-2.657438
H	-2.204417	-4.153131	-2.867810
H	-3.399269	-3.739531	-1.568770
C	0.936109	-2.306654	0.540061
S	-1.341474	-2.306501	-0.761887
C	0.000000	-1.435185	0.000000
H	1.844392	-1.978138	1.060690
C	0.000000	0.000000	0.000000
S	0.693394	0.581209	1.507541
C	1.897536	1.592607	0.718873
C	0.693330	0.580791	-1.067872
C	1.756758	1.476132	-0.686410
S	0.508573	0.422041	-2.805516
C	1.846879	1.552232	-3.054530
C	2.387897	2.009402	-1.862551
F	3.408741	2.872264	-1.819088
C	2.191300	1.838768	-4.456084
O	1.606694	1.337806	-5.406510
O	3.221062	2.712584	-4.569225
C	3.603677	3.026817	-5.916207
H	4.442623	3.739898	-5.833064
H	2.758956	3.483875	-6.470168
H	3.921969	2.114070	-6.459293
H	2.604650	2.187790	1.306486
H	0.700788	-9.143623	-0.587067
H	-0.186556	-9.149441	0.974683
H	0.533530	-1.443175	-0.938979
$end

$rem
JOBTYPE		SP
EXCHANGE	HF
CORRELATION	pRIMP2
BASIS		cc-pvtz
METHOD		rimp2
AUX_BASIS	rimp2-cc-pvtz
SOLVENT_METHOD	PCM
PURECART	11111
SYMMETRY	false
MEM_TOTAL	110000
SCF_CONVERGENCE = 6
THRESH=10
GUI = 2
$end

$solvent
dielectric 4.90
$end
--------------------------------------------------------------

             Standard Nuclear Orientation (Angstroms)
    I     Atom           X                Y                Z
 ----------------------------------------------------------------
    1      C       0.2549450000    -8.5177020000     0.1949170000
    2      C      -0.6805960000    -7.6415750000    -0.3358390000
    3      S       1.6038760000    -7.6386340000     0.9547720000
    4      C      -0.3545850000    -6.2647850000    -0.1475760000
    5      H      -1.5913560000    -7.9660810000    -0.8548360000
    6      C       0.8799990000    -6.0727140000     0.5670900000
    7      C       1.3795340000    -4.7870490000     0.8267310000
    8      C      -1.1243840000    -5.1628010000    -0.6184050000
    9      C      -0.6224070000    -3.8748170000    -0.3623330000
   10      C       0.6120670000    -3.6839520000     0.3555750000
   11      O      -2.2811660000    -5.4997720000    -1.2536770000
   12      O       2.5421740000    -4.4590550000     1.4638590000
   13      C       3.0607180000    -5.3290630000     2.4626790000
   14      H       3.8416780000    -4.7556940000     2.9975070000
   15      H       3.5303610000    -6.2380950000     2.0271790000
   16      H       2.2742830000    -5.6372620000     3.1851320000
   17      C      -2.9165450000    -4.5722610000    -2.1249020000
   18      H      -3.7030730000    -5.1397430000    -2.6574380000
   19      H      -2.2044170000    -4.1531310000    -2.8678100000
   20      H      -3.3992690000    -3.7395310000    -1.5687700000
   21      C       0.9361090000    -2.3066540000     0.5400610000
   22      S      -1.3414740000    -2.3065010000    -0.7618870000
   23      C       0.0000000000    -1.4351850000     0.0000000000
   24      H       1.8443920000    -1.9781380000     1.0606900000
   25      C       0.0000000000     0.0000000000     0.0000000000
   26      S       0.6933940000     0.5812090000     1.5075410000
   27      C       1.8975360000     1.5926070000     0.7188730000
   28      C       0.6933300000     0.5807910000    -1.0678720000
   29      C       1.7567580000     1.4761320000    -0.6864100000
   30      S       0.5085730000     0.4220410000    -2.8055160000
   31      C       1.8468790000     1.5522320000    -3.0545300000
   32      C       2.3878970000     2.0094020000    -1.8625510000
   33      F       3.4087410000     2.8722640000    -1.8190880000
   34      C       2.1913000000     1.8387680000    -4.4560840000
   35      O       1.6066940000     1.3378060000    -5.4065100000
   36      O       3.2210620000     2.7125840000    -4.5692250000
   37      C       3.6036770000     3.0268170000    -5.9162070000
   38      H       4.4426230000     3.7398980000    -5.8330640000
   39      H       2.7589560000     3.4838750000    -6.4701680000
   40      H       3.9219690000     2.1140700000    -6.4592930000
   41      H       2.6046500000     2.1877900000     1.3064860000
   42      H       0.7007880000    -9.1436230000    -0.5870670000
   43      H      -0.1865560000    -9.1494410000     0.9746830000
   44      H       0.5335300000    -1.4431750000    -0.9389790000
 ----------------------------------------------------------------

   11   -2755.2934847220      7.63e-07  Convergence criterion met
 Total energy in the final basis set =    -2755.2934847220
        RIMP2         total energy =     -2760.3949831560 a.u.

                    Orbital Energies (a.u.)
 --------------------------------------------------------------

 Alpha MOs
 -- Occupied --
-92.0149 -92.0100 -91.9695 -91.9562 -26.3472 -20.6163 -20.5866 -20.5837
-20.5628 -11.4115 -11.3882 -11.3268 -11.3137 -11.3079 -11.3020 -11.3001
-11.2899 -11.2888 -11.2831 -11.2825 -11.2820 -11.2798 -11.2738 -11.2717
-11.2701 -11.2558 -11.2538 -11.2474 -11.2315  -9.0140  -9.0097  -8.9720
 -8.9588  -6.6947  -6.6939  -6.6936  -6.6906  -6.6899  -6.6889  -6.6531
 -6.6523  -6.6510  -6.6401  -6.6392  -6.6381  -1.6641  -1.4689  -1.4087
 -1.4067  -1.3716  -1.2402  -1.1999  -1.1717  -1.1410  -1.0994  -1.0503
 -1.0432  -1.0275  -1.0007  -0.9945  -0.9663  -0.9569  -0.9481  -0.9416
 -0.8906  -0.8737  -0.8594  -0.8194  -0.7962  -0.7882  -0.7821  -0.7664
 -0.7596  -0.7341  -0.7288  -0.7133  -0.7021  -0.6927  -0.6864  -0.6794
 -0.6754  -0.6680  -0.6539  -0.6470  -0.6360  -0.6293  -0.6179  -0.6148
 -0.6097  -0.6021  -0.5932  -0.5766  -0.5707  -0.5625  -0.5562  -0.5552
 -0.5509  -0.5325  -0.5265  -0.5207  -0.5130  -0.5103  -0.5060  -0.4986
 -0.4858  -0.4843  -0.4764  -0.4743  -0.4706  -0.4654  -0.4564  -0.4434
 -0.4247  -0.3962  -0.3803  -0.3687  -0.3484  -0.3108  -0.2862  -0.2153

          Ground-State Mulliken Net Atomic Charges

     Atom                 Charge (a.u.)
  ----------------------------------------
      1 C                    -0.069185
      2 C                    -0.274951
      3 S                    -0.140360
      4 C                    -0.039463
      5 H                     0.191623
      6 C                    -0.053835
      7 C                     0.224247
      8 C                     0.216712
      9 C                    -0.065963
     10 C                    -0.061138
     11 O                    -0.336360
     12 O                    -0.344488
     13 C                    -0.082543
     14 H                     0.119049
     15 H                     0.092228
     16 H                     0.092743
     17 C                    -0.086719
     18 H                     0.121982
     19 H                     0.091733
     20 H                     0.089972
     21 C                    -0.260411
     22 S                    -0.097292
     23 C                     0.050878
     24 H                     0.205957
     25 C                    -0.125311
     26 S                     0.098071
     27 C                    -0.148449
     28 C                     0.033905
     29 C                    -0.099839
     30 S                     0.039645
     31 C                    -0.151556
     32 C                     0.394393
     33 F                    -0.203476
     34 C                     0.447797
     35 O                    -0.461376
     36 O                    -0.301245
     37 C                    -0.058149
     38 H                     0.121683
     39 H                     0.095397
     40 H                     0.095490
     41 H                     0.219958
     42 H                     0.115465
     43 H                     0.112889
     44 H                     0.190290
  ----------------------------------------
  Sum of atomic charges =     0.000000

                    Cartesian Multipole Moments
 -----------------------------------------------------------------
    Charge (ESU x 10^10)
                -0.0000
    Dipole Moment (Debye)
         X       3.2592      Y       3.7369      Z       2.1793
       Tot       5.4162
    Quadrupole Moments (Debye-Ang)
        XX    -184.1767     XY      11.3554     YY    -191.9965
        XZ       3.0895     YZ      -3.6436     ZZ    -194.0700

 Total job time:  330.73s(wall), 10581.35s(cpu)
        *  Thank you very much for using Q-Chem.  Have a nice day.  *
