 Q-Chem 5.4, Q-Chem, Inc., Pleasanton, CA (2021)
 Q-Chem 5.4.0 for Intel X86 EM64T Linux

User input:
--------------------------------------------------------------
$molecule
0 1
C	0.701193	-8.488892	0.318247
C	0.616742	-7.616807	-0.757333
S	0.640926	-7.611739	1.866383
C	0.496713	-6.245258	-0.380867
H	0.639132	-7.940593	-1.805573
C	0.478351	-6.054060	1.045647
C	0.391116	-4.771116	1.608077
C	0.423432	-5.145477	-1.282948
C	0.340289	-3.859847	-0.720187
C	0.319182	-3.670099	0.707853
O	0.424679	-5.483626	-2.602386
O	0.391967	-4.441795	2.933517
C	-0.135633	-5.361285	3.881999
H	-0.258024	-4.796434	4.825744
H	0.553241	-6.213521	4.070972
H	-1.123774	-5.757113	3.562152
C	0.778992	-4.521574	-3.588253
H	0.896118	-5.080975	-4.535674
H	1.738100	-4.016931	-3.342986
H	-0.013821	-3.755025	-3.728239
C	0.201385	-2.297846	1.080725
S	0.190142	-2.298676	-1.542694
C	0.125085	-1.429724	0.000000
H	0.176004	-1.970295	2.127635
C	0.000000	0.000000	0.000000
S	0.000474	0.904764	1.507541
C	-0.000295	2.477305	0.718873
C	0.000752	0.904447	-1.067872
C	-0.001560	2.294593	-0.686410
S	0.003602	0.660872	-2.805516
C	-0.001928	2.412546	-3.054530
C	-0.004381	3.120854	-1.862551
F	-0.009185	4.457503	-1.819088
C	-0.000038	2.860570	-4.456084
O	0.007944	2.090724	-5.406510
O	-0.007501	4.211092	-4.569225
C	-0.002278	4.706177	-5.916207
H	-0.009265	5.807207	-5.833064
H	-0.895381	4.352875	-6.470168
H	0.901521	4.363301	-6.459293
H	-0.001708	3.401562	1.306486
H	1.652460	-9.033979	0.313367
H	-0.136385	-9.196322	0.325780
H	1.201616	-1.343560	-0.007439
$end

$rem
JOBTYPE		SP
EXCHANGE	HF
CORRELATION	pRIMP2
BASIS		cc-pvtz
METHOD		rimp2
AUX_BASIS	rimp2-cc-pvtz
SOLVENT_METHOD	PCM
PURECART	11111
SYMMETRY	false
MEM_TOTAL	110000
SCF_CONVERGENCE = 6
THRESH=10
GUI = 2
$end

$solvent
dielectric 4.90
$end
--------------------------------------------------------------

             Standard Nuclear Orientation (Angstroms)
    I     Atom           X                Y                Z
 ----------------------------------------------------------------
    1      C       0.7011930000    -8.4888920000     0.3182470000
    2      C       0.6167420000    -7.6168070000    -0.7573330000
    3      S       0.6409260000    -7.6117390000     1.8663830000
    4      C       0.4967130000    -6.2452580000    -0.3808670000
    5      H       0.6391320000    -7.9405930000    -1.8055730000
    6      C       0.4783510000    -6.0540600000     1.0456470000
    7      C       0.3911160000    -4.7711160000     1.6080770000
    8      C       0.4234320000    -5.1454770000    -1.2829480000
    9      C       0.3402890000    -3.8598470000    -0.7201870000
   10      C       0.3191820000    -3.6700990000     0.7078530000
   11      O       0.4246790000    -5.4836260000    -2.6023860000
   12      O       0.3919670000    -4.4417950000     2.9335170000
   13      C      -0.1356330000    -5.3612850000     3.8819990000
   14      H      -0.2580240000    -4.7964340000     4.8257440000
   15      H       0.5532410000    -6.2135210000     4.0709720000
   16      H      -1.1237740000    -5.7571130000     3.5621520000
   17      C       0.7789920000    -4.5215740000    -3.5882530000
   18      H       0.8961180000    -5.0809750000    -4.5356740000
   19      H       1.7381000000    -4.0169310000    -3.3429860000
   20      H      -0.0138210000    -3.7550250000    -3.7282390000
   21      C       0.2013850000    -2.2978460000     1.0807250000
   22      S       0.1901420000    -2.2986760000    -1.5426940000
   23      C       0.1250850000    -1.4297240000     0.0000000000
   24      H       0.1760040000    -1.9702950000     2.1276350000
   25      C       0.0000000000     0.0000000000     0.0000000000
   26      S       0.0004740000     0.9047640000     1.5075410000
   27      C      -0.0002950000     2.4773050000     0.7188730000
   28      C       0.0007520000     0.9044470000    -1.0678720000
   29      C      -0.0015600000     2.2945930000    -0.6864100000
   30      S       0.0036020000     0.6608720000    -2.8055160000
   31      C      -0.0019280000     2.4125460000    -3.0545300000
   32      C      -0.0043810000     3.1208540000    -1.8625510000
   33      F      -0.0091850000     4.4575030000    -1.8190880000
   34      C      -0.0000380000     2.8605700000    -4.4560840000
   35      O       0.0079440000     2.0907240000    -5.4065100000
   36      O      -0.0075010000     4.2110920000    -4.5692250000
   37      C      -0.0022780000     4.7061770000    -5.9162070000
   38      H      -0.0092650000     5.8072070000    -5.8330640000
   39      H      -0.8953810000     4.3528750000    -6.4701680000
   40      H       0.9015210000     4.3633010000    -6.4592930000
   41      H      -0.0017080000     3.4015620000     1.3064860000
   42      H       1.6524600000    -9.0339790000     0.3133670000
   43      H      -0.1363850000    -9.1963220000     0.3257800000
   44      H       1.2016160000    -1.3435600000    -0.0074390000
 ----------------------------------------------------------------

   11   -2755.3429263975      8.54e-07  Convergence criterion met
 Total energy in the final basis set =    -2755.3429263975
        RIMP2         total energy =     -2760.4338269346 a.u.

                    Orbital Energies (a.u.)
 --------------------------------------------------------------

 Alpha MOs
 -- Occupied --
-92.0138 -91.9936 -91.9811 -91.9604 -26.3417 -20.6146 -20.5889 -20.5884
-20.5611 -11.4090 -11.3799 -11.3129 -11.3114 -11.3104 -11.2983 -11.2971
-11.2902 -11.2886 -11.2856 -11.2853 -11.2850 -11.2840 -11.2838 -11.2760
-11.2734 -11.2625 -11.2602 -11.2518 -11.2415  -9.0125  -8.9940  -8.9835
 -8.9629  -6.6933  -6.6928  -6.6922  -6.6750  -6.6743  -6.6731  -6.6646
 -6.6638  -6.6625  -6.6442  -6.6432  -6.6422  -1.6588  -1.4670  -1.4122
 -1.4103  -1.3697  -1.2301  -1.2029  -1.1760  -1.1369  -1.1017  -1.0492
 -1.0438  -1.0237  -1.0053  -0.9986  -0.9637  -0.9570  -0.9499  -0.9421
 -0.8954  -0.8699  -0.8653  -0.8152  -0.7926  -0.7905  -0.7850  -0.7704
 -0.7565  -0.7377  -0.7238  -0.7109  -0.6970  -0.6937  -0.6844  -0.6818
 -0.6735  -0.6641  -0.6569  -0.6498  -0.6388  -0.6318  -0.6221  -0.6163
 -0.6113  -0.5997  -0.5934  -0.5766  -0.5715  -0.5668  -0.5606  -0.5566
 -0.5500  -0.5325  -0.5315  -0.5274  -0.5165  -0.5121  -0.5086  -0.5012
 -0.4849  -0.4792  -0.4764  -0.4739  -0.4706  -0.4658  -0.4600  -0.4484
 -0.4328  -0.3985  -0.3836  -0.3729  -0.3504  -0.3003  -0.2863  -0.2186

          Ground-State Mulliken Net Atomic Charges

     Atom                 Charge (a.u.)
  ----------------------------------------
      1 C                    -0.070768
      2 C                    -0.246040
      3 S                    -0.131442
      4 C                    -0.051904
      5 H                     0.195368
      6 C                    -0.048668
      7 C                     0.221086
      8 C                     0.234378
      9 C                    -0.065949
     10 C                    -0.024003
     11 O                    -0.333569
     12 O                    -0.344130
     13 C                    -0.082721
     14 H                     0.120251
     15 H                     0.092226
     16 H                     0.093217
     17 C                    -0.090175
     18 H                     0.125424
     19 H                     0.093666
     20 H                     0.092065
     21 C                    -0.338246
     22 S                    -0.121104
     23 C                     0.183523
     24 H                     0.195137
     25 C                    -0.012611
     26 S                     0.072106
     27 C                    -0.221265
     28 C                    -0.034093
     29 C                    -0.123544
     30 S                    -0.014506
     31 C                    -0.166529
     32 C                     0.412860
     33 F                    -0.208705
     34 C                     0.441480
     35 O                    -0.460838
     36 O                    -0.300462
     37 C                    -0.058947
     38 H                     0.121440
     39 H                     0.095208
     40 H                     0.094988
     41 H                     0.216849
     42 H                     0.119220
     43 H                     0.116883
     44 H                     0.212841
  ----------------------------------------
  Sum of atomic charges =     0.000000

                    Cartesian Multipole Moments
 -----------------------------------------------------------------
    Charge (ESU x 10^10)
                 0.0000
    Dipole Moment (Debye)
         X       0.7647      Y       1.1092      Z       2.7461
       Tot       3.0588
    Quadrupole Moments (Debye-Ang)
        XX    -199.8470     XY      -1.5380     YY    -168.0166
        XZ      -6.0388     YZ      -3.6905     ZZ    -189.7536

 Total job time:  327.99s(wall), 10520.16s(cpu)
        *  Thank you very much for using Q-Chem.  Have a nice day.  *
