 Q-Chem 5.4, Q-Chem, Inc., Pleasanton, CA (2021)
 Q-Chem 5.4.0 for Intel X86 EM64T Linux

User input:
--------------------------------------------------------------
$molecule
0 1
C	1.438381	-8.395476	0.318247
C	1.278244	-7.534070	-0.757333
S	1.301894	-7.526914	1.866383
C	1.039133	-6.178202	-0.380867
H	1.328769	-7.854673	-1.805573
C	1.004177	-5.989332	1.045647
C	0.805458	-4.718873	1.608077
C	0.870278	-5.088992	-1.282948
C	0.675402	-3.815501	-0.720187
C	0.637837	-3.628315	0.707853
O	0.900992	-5.425746	-2.602386
O	0.777604	-4.390731	2.933517
C	0.332149	-5.352705	3.881999
H	0.160995	-4.800670	4.825744
H	1.092680	-6.141658	4.070972
H	-0.617733	-5.833149	3.562152
C	1.170109	-4.436474	-3.588253
H	1.335544	-4.983539	-4.535674
H	2.081585	-3.850160	-3.342986
H	0.313504	-3.741940	-3.728239
C	0.400889	-2.271550	1.080725
S	0.389762	-2.273357	-1.542694
C	0.249217	-1.413382	0.000000
H	0.347057	-1.947458	2.127635
C	0.000000	0.000000	0.000000
S	0.309893	0.850039	1.507541
C	0.847011	2.328006	0.718873
C	0.310046	0.849645	-1.067872
C	0.783331	2.156746	-0.686410
S	0.229416	0.619785	-2.805516
C	0.823328	2.267711	-3.054530
C	1.063278	2.934142	-1.862551
F	1.515925	4.191824	-1.819088
C	0.978337	2.688069	-4.456084
O	0.722535	1.961921	-5.406510
O	1.433229	3.959697	-4.569225
C	1.607467	4.423139	-5.916207
H	1.977475	5.460158	-5.833064
H	0.647388	4.396602	-6.470168
H	2.339490	3.791823	-6.459293
H	1.161798	3.197007	1.306486
H	2.433535	-8.855580	0.313367
H	0.665647	-9.173214	0.325780
H	1.314143	-1.233719	-0.007439
$end

$rem
JOBTYPE		SP
EXCHANGE	HF
CORRELATION	pRIMP2
BASIS		cc-pvtz
METHOD		rimp2
AUX_BASIS	rimp2-cc-pvtz
SOLVENT_METHOD	PCM
PURECART	11111
SYMMETRY	false
MEM_TOTAL	110000
SCF_CONVERGENCE = 6
THRESH=10
GUI = 2
$end

$solvent
dielectric 4.90
$end
--------------------------------------------------------------

             Standard Nuclear Orientation (Angstroms)
    I     Atom           X                Y                Z
 ----------------------------------------------------------------
    1      C       1.4383810000    -8.3954760000     0.3182470000
    2      C       1.2782440000    -7.5340700000    -0.7573330000
    3      S       1.3018940000    -7.5269140000     1.8663830000
    4      C       1.0391330000    -6.1782020000    -0.3808670000
    5      H       1.3287690000    -7.8546730000    -1.8055730000
    6      C       1.0041770000    -5.9893320000     1.0456470000
    7      C       0.8054580000    -4.7188730000     1.6080770000
    8      C       0.8702780000    -5.0889920000    -1.2829480000
    9      C       0.6754020000    -3.8155010000    -0.7201870000
   10      C       0.6378370000    -3.6283150000     0.7078530000
   11      O       0.9009920000    -5.4257460000    -2.6023860000
   12      O       0.7776040000    -4.3907310000     2.9335170000
   13      C       0.3321490000    -5.3527050000     3.8819990000
   14      H       0.1609950000    -4.8006700000     4.8257440000
   15      H       1.0926800000    -6.1416580000     4.0709720000
   16      H      -0.6177330000    -5.8331490000     3.5621520000
   17      C       1.1701090000    -4.4364740000    -3.5882530000
   18      H       1.3355440000    -4.9835390000    -4.5356740000
   19      H       2.0815850000    -3.8501600000    -3.3429860000
   20      H       0.3135040000    -3.7419400000    -3.7282390000
   21      C       0.4008890000    -2.2715500000     1.0807250000
   22      S       0.3897620000    -2.2733570000    -1.5426940000
   23      C       0.2492170000    -1.4133820000     0.0000000000
   24      H       0.3470570000    -1.9474580000     2.1276350000
   25      C       0.0000000000     0.0000000000     0.0000000000
   26      S       0.3098930000     0.8500390000     1.5075410000
   27      C       0.8470110000     2.3280060000     0.7188730000
   28      C       0.3100460000     0.8496450000    -1.0678720000
   29      C       0.7833310000     2.1567460000    -0.6864100000
   30      S       0.2294160000     0.6197850000    -2.8055160000
   31      C       0.8233280000     2.2677110000    -3.0545300000
   32      C       1.0632780000     2.9341420000    -1.8625510000
   33      F       1.5159250000     4.1918240000    -1.8190880000
   34      C       0.9783370000     2.6880690000    -4.4560840000
   35      O       0.7225350000     1.9619210000    -5.4065100000
   36      O       1.4332290000     3.9596970000    -4.5692250000
   37      C       1.6074670000     4.4231390000    -5.9162070000
   38      H       1.9774750000     5.4601580000    -5.8330640000
   39      H       0.6473880000     4.3966020000    -6.4701680000
   40      H       2.3394900000     3.7918230000    -6.4592930000
   41      H       1.1617980000     3.1970070000     1.3064860000
   42      H       2.4335350000    -8.8555800000     0.3133670000
   43      H       0.6656470000    -9.1732140000     0.3257800000
   44      H       1.3141430000    -1.2337190000    -0.0074390000
 ----------------------------------------------------------------

   11   -2755.3266622013      8.09e-07  Convergence criterion met
 Total energy in the final basis set =    -2755.3266622013
        RIMP2         total energy =     -2760.4229633723 a.u.

                    Orbital Energies (a.u.)
 --------------------------------------------------------------

 Alpha MOs
 -- Occupied --
-92.0126 -91.9956 -91.9784 -91.9597 -26.3423 -20.6149 -20.5881 -20.5880
-20.5614 -11.4094 -11.3807 -11.3100 -11.3098 -11.3072 -11.3039 -11.2976
-11.2933 -11.2889 -11.2851 -11.2844 -11.2841 -11.2838 -11.2835 -11.2749
-11.2715 -11.2608 -11.2594 -11.2512 -11.2402  -9.0117  -8.9960  -8.9810
 -8.9623  -6.6925  -6.6919  -6.6913  -6.6769  -6.6762  -6.6750  -6.6620
 -6.6612  -6.6599  -6.6435  -6.6426  -6.6415  -1.6595  -1.4673  -1.4115
 -1.4098  -1.3700  -1.2330  -1.2018  -1.1753  -1.1382  -1.1005  -1.0487
 -1.0445  -1.0248  -1.0039  -0.9974  -0.9643  -0.9564  -0.9497  -0.9422
 -0.8946  -0.8693  -0.8636  -0.8162  -0.7919  -0.7902  -0.7840  -0.7697
 -0.7566  -0.7373  -0.7245  -0.7111  -0.6963  -0.6946  -0.6847  -0.6818
 -0.6738  -0.6653  -0.6563  -0.6493  -0.6377  -0.6312  -0.6214  -0.6159
 -0.6111  -0.6001  -0.5937  -0.5772  -0.5707  -0.5664  -0.5601  -0.5563
 -0.5485  -0.5331  -0.5307  -0.5265  -0.5165  -0.5120  -0.5082  -0.5007
 -0.4844  -0.4792  -0.4776  -0.4732  -0.4703  -0.4651  -0.4583  -0.4477
 -0.4320  -0.3977  -0.3815  -0.3722  -0.3512  -0.3011  -0.2857  -0.2173

          Ground-State Mulliken Net Atomic Charges

     Atom                 Charge (a.u.)
  ----------------------------------------
      1 C                    -0.070784
      2 C                    -0.249902
      3 S                    -0.132803
      4 C                    -0.049539
      5 H                     0.194839
      6 C                    -0.048634
      7 C                     0.217699
      8 C                     0.230798
      9 C                    -0.068193
     10 C                    -0.030026
     11 O                    -0.334309
     12 O                    -0.344118
     13 C                    -0.082747
     14 H                     0.120079
     15 H                     0.092119
     16 H                     0.093153
     17 C                    -0.088911
     18 H                     0.124613
     19 H                     0.093220
     20 H                     0.091639
     21 C                    -0.317700
     22 S                    -0.108172
     23 C                     0.117346
     24 H                     0.198619
     25 C                     0.016793
     26 S                     0.074551
     27 C                    -0.214618
     28 C                    -0.063334
     29 C                    -0.097782
     30 S                     0.003196
     31 C                    -0.162070
     32 C                     0.404922
     33 F                    -0.207683
     34 C                     0.444882
     35 O                    -0.460321
     36 O                    -0.300721
     37 C                    -0.058554
     38 H                     0.121420
     39 H                     0.095190
     40 H                     0.095007
     41 H                     0.217276
     42 H                     0.118773
     43 H                     0.116401
     44 H                     0.208387
  ----------------------------------------
  Sum of atomic charges =     0.000000

                    Cartesian Multipole Moments
 -----------------------------------------------------------------
    Charge (ESU x 10^10)
                 0.0000
    Dipole Moment (Debye)
         X       1.6412      Y       1.6077      Z       2.6283
       Tot       3.4908
    Quadrupole Moments (Debye-Ang)
        XX    -197.7087     XY       2.3243     YY    -172.0630
        XZ      -9.0910     YZ      -3.8129     ZZ    -189.4105

 Total job time:  383.08s(wall), 11037.98s(cpu)
        *  Thank you very much for using Q-Chem.  Have a nice day.  *
