 Q-Chem 5.4, Q-Chem, Inc., Pleasanton, CA (2021)
 Q-Chem 5.4.0 for Intel X86 EM64T Linux

User input:
--------------------------------------------------------------
$molecule
0 1
C	0.095966	-8.517702	-0.306235
C	-0.082807	-7.641575	0.754415
S	0.348635	-7.638634	-1.833702
C	-0.017401	-6.264785	0.383675
H	-0.259008	-7.966081	1.787757
C	0.231913	-6.072714	-1.020885
C	0.305044	-4.787049	-1.579097
C	-0.196549	-5.162801	1.268082
C	-0.127606	-3.874817	0.708796
C	0.124792	-3.683952	-0.696769
O	-0.397867	-5.499772	2.572378
O	0.506103	-4.459055	-2.889532
C	1.267335	-5.329063	-3.718420
H	1.502804	-4.755694	-4.635204
H	0.697471	-6.238095	-4.010790
H	2.215194	-5.637262	-3.226506
C	-0.999238	-4.572261	3.467415
H	-1.230649	-5.139743	4.388648
H	-1.940905	-4.153131	3.052323
H	-0.311543	-3.739531	3.730819
C	0.187323	-2.306654	-1.064366
S	-0.257128	-2.306501	1.521154
C	0.000000	-1.435185	0.000000
H	0.365903	-1.978138	-2.095939
C	0.000000	0.000000	0.000000
S	0.693394	0.581209	1.507541
C	1.897536	1.592607	0.718873
C	0.693330	0.580791	-1.067872
C	1.756758	1.476132	-0.686410
S	0.508573	0.422041	-2.805516
C	1.846879	1.552232	-3.054530
C	2.387897	2.009402	-1.862551
F	3.408741	2.872264	-1.819088
C	2.191300	1.838768	-4.456084
O	1.606694	1.337806	-5.406510
O	3.221062	2.712584	-4.569225
C	3.603677	3.026817	-5.916207
H	4.442623	3.739898	-5.833064
H	2.758956	3.483875	-6.470168
H	3.921969	2.114070	-6.459293
H	2.604650	2.187790	1.306486
H	-0.791346	-9.143623	-0.457736
H	0.979708	-9.149441	-0.158056
H	-1.064830	-1.443175	-0.180205
$end

$rem
JOBTYPE		SP
EXCHANGE	HF
CORRELATION	pRIMP2
BASIS		cc-pvtz
METHOD		rimp2
AUX_BASIS	rimp2-cc-pvtz
SOLVENT_METHOD	PCM
PURECART	11111
SYMMETRY	false
MEM_TOTAL	110000
SCF_CONVERGENCE = 6
THRESH=10
GUI = 2
$end

$solvent
dielectric 4.90
$end
--------------------------------------------------------------

             Standard Nuclear Orientation (Angstroms)
    I     Atom           X                Y                Z
 ----------------------------------------------------------------
    1      C       0.0959660000    -8.5177020000    -0.3062350000
    2      C      -0.0828070000    -7.6415750000     0.7544150000
    3      S       0.3486350000    -7.6386340000    -1.8337020000
    4      C      -0.0174010000    -6.2647850000     0.3836750000
    5      H      -0.2590080000    -7.9660810000     1.7877570000
    6      C       0.2319130000    -6.0727140000    -1.0208850000
    7      C       0.3050440000    -4.7870490000    -1.5790970000
    8      C      -0.1965490000    -5.1628010000     1.2680820000
    9      C      -0.1276060000    -3.8748170000     0.7087960000
   10      C       0.1247920000    -3.6839520000    -0.6967690000
   11      O      -0.3978670000    -5.4997720000     2.5723780000
   12      O       0.5061030000    -4.4590550000    -2.8895320000
   13      C       1.2673350000    -5.3290630000    -3.7184200000
   14      H       1.5028040000    -4.7556940000    -4.6352040000
   15      H       0.6974710000    -6.2380950000    -4.0107900000
   16      H       2.2151940000    -5.6372620000    -3.2265060000
   17      C      -0.9992380000    -4.5722610000     3.4674150000
   18      H      -1.2306490000    -5.1397430000     4.3886480000
   19      H      -1.9409050000    -4.1531310000     3.0523230000
   20      H      -0.3115430000    -3.7395310000     3.7308190000
   21      C       0.1873230000    -2.3066540000    -1.0643660000
   22      S      -0.2571280000    -2.3065010000     1.5211540000
   23      C       0.0000000000    -1.4351850000     0.0000000000
   24      H       0.3659030000    -1.9781380000    -2.0959390000
   25      C       0.0000000000     0.0000000000     0.0000000000
   26      S       0.6933940000     0.5812090000     1.5075410000
   27      C       1.8975360000     1.5926070000     0.7188730000
   28      C       0.6933300000     0.5807910000    -1.0678720000
   29      C       1.7567580000     1.4761320000    -0.6864100000
   30      S       0.5085730000     0.4220410000    -2.8055160000
   31      C       1.8468790000     1.5522320000    -3.0545300000
   32      C       2.3878970000     2.0094020000    -1.8625510000
   33      F       3.4087410000     2.8722640000    -1.8190880000
   34      C       2.1913000000     1.8387680000    -4.4560840000
   35      O       1.6066940000     1.3378060000    -5.4065100000
   36      O       3.2210620000     2.7125840000    -4.5692250000
   37      C       3.6036770000     3.0268170000    -5.9162070000
   38      H       4.4426230000     3.7398980000    -5.8330640000
   39      H       2.7589560000     3.4838750000    -6.4701680000
   40      H       3.9219690000     2.1140700000    -6.4592930000
   41      H       2.6046500000     2.1877900000     1.3064860000
   42      H      -0.7913460000    -9.1436230000    -0.4577360000
   43      H       0.9797080000    -9.1494410000    -0.1580560000
   44      H      -1.0648300000    -1.4431750000    -0.1802050000
 ----------------------------------------------------------------

   11   -2755.2823292661      7.92e-07  Convergence criterion met
 Total energy in the final basis set =    -2755.2823292661
        RIMP2         total energy =     -2760.3884535076 a.u.

                    Orbital Energies (a.u.)
 --------------------------------------------------------------

 Alpha MOs
 -- Occupied --
-92.0115 -92.0063 -91.9789 -91.9555 -26.3458 -20.6160 -20.5861 -20.5857
-20.5625 -11.4110 -11.3860 -11.3220 -11.3104 -11.3082 -11.3048 -11.2992
-11.2897 -11.2876 -11.2842 -11.2842 -11.2827 -11.2816 -11.2744 -11.2723
-11.2686 -11.2562 -11.2525 -11.2471 -11.2311  -9.0111  -9.0064  -8.9811
 -8.9581  -6.6918  -6.6909  -6.6906  -6.6873  -6.6866  -6.6855  -6.6622
 -6.6613  -6.6601  -6.6394  -6.6384  -6.6374  -1.6628  -1.4685  -1.4092
 -1.4078  -1.3713  -1.2367  -1.2012  -1.1715  -1.1400  -1.0987  -1.0488
 -1.0447  -1.0267  -1.0019  -0.9960  -0.9648  -0.9598  -0.9474  -0.9410
 -0.8931  -0.8719  -0.8613  -0.8129  -0.8000  -0.7911  -0.7816  -0.7650
 -0.7583  -0.7366  -0.7275  -0.7135  -0.6982  -0.6924  -0.6858  -0.6812
 -0.6751  -0.6628  -0.6558  -0.6477  -0.6391  -0.6306  -0.6176  -0.6138
 -0.6117  -0.6014  -0.5921  -0.5791  -0.5706  -0.5663  -0.5577  -0.5560
 -0.5376  -0.5343  -0.5306  -0.5250  -0.5123  -0.5101  -0.5069  -0.4994
 -0.4871  -0.4813  -0.4773  -0.4744  -0.4694  -0.4627  -0.4556  -0.4447
 -0.4307  -0.3923  -0.3831  -0.3684  -0.3494  -0.3045  -0.2864  -0.2120

          Ground-State Mulliken Net Atomic Charges

     Atom                 Charge (a.u.)
  ----------------------------------------
      1 C                    -0.069014
      2 C                    -0.277782
      3 S                    -0.142187
      4 C                    -0.043136
      5 H                     0.191077
      6 C                    -0.055986
      7 C                     0.230503
      8 C                     0.226196
      9 C                    -0.073421
     10 C                    -0.056851
     11 O                    -0.335015
     12 O                    -0.344678
     13 C                    -0.083287
     14 H                     0.120656
     15 H                     0.092635
     16 H                     0.092433
     17 C                    -0.088108
     18 H                     0.124052
     19 H                     0.092100
     20 H                     0.088912
     21 C                    -0.255300
     22 S                    -0.104454
     23 C                     0.061698
     24 H                     0.202536
     25 C                    -0.110962
     26 S                     0.100366
     27 C                    -0.163423
     28 C                     0.007164
     29 C                    -0.097657
     30 S                     0.043400
     31 C                    -0.162080
     32 C                     0.401507
     33 F                    -0.204798
     34 C                     0.448365
     35 O                    -0.461825
     36 O                    -0.301025
     37 C                    -0.058267
     38 H                     0.121708
     39 H                     0.095295
     40 H                     0.095268
     41 H                     0.218897
     42 H                     0.114975
     43 H                     0.112610
     44 H                     0.206901
  ----------------------------------------
  Sum of atomic charges =     0.000000

                    Cartesian Multipole Moments
 -----------------------------------------------------------------
    Charge (ESU x 10^10)
                 0.0000
    Dipole Moment (Debye)
         X       2.1258      Y       3.4121      Z       2.6545
       Tot       4.8174
    Quadrupole Moments (Debye-Ang)
        XX    -187.4415     XY       9.1037     YY    -193.0180
        XZ     -13.4488     YZ      -8.5100     ZZ    -191.0067

 Total job time:  329.99s(wall), 10708.94s(cpu)
        *  Thank you very much for using Q-Chem.  Have a nice day.  *
