 Q-Chem 5.4, Q-Chem, Inc., Pleasanton, CA (2021)
 Q-Chem 5.4.0 for Intel X86 EM64T Linux

User input:
--------------------------------------------------------------
$molecule
0 1
C	0.014560	-8.517702	0.320589
C	-0.180211	-7.641575	-0.737240
S	0.299553	-7.638634	1.842356
C	-0.114873	-6.264785	-0.366488
H	-0.368061	-7.966081	-1.768528
C	0.131236	-6.072714	1.038637
C	0.253435	-4.787049	1.588197
C	-0.249014	-5.162801	-1.258831
C	-0.122513	-3.874817	-0.709695
C	0.121043	-3.683952	0.697430
O	-0.505933	-5.499772	-2.553323
O	0.512697	-4.459055	2.888369
C	0.080869	-5.329063	3.927625
H	0.173159	-4.755694	4.869656
H	0.716363	-6.238095	4.007459
H	-0.978072	-5.637262	3.789565
C	-0.246949	-4.572261	-3.600064
H	-0.344574	-5.139743	-4.544887
H	0.779898	-4.153131	-3.532074
H	-0.983261	-3.739531	-3.612378
C	0.188009	-2.306654	1.064246
S	-0.278644	-2.306501	-1.517360
C	0.000000	-1.435185	0.000000
H	0.373017	-1.978138	2.094685
C	0.000000	0.000000	0.000000
S	0.452792	0.783312	1.507541
C	1.238397	2.145556	0.718873
C	0.452875	0.782898	-1.067872
C	1.145945	1.987956	-0.686410
S	0.333556	0.570531	-2.805516
C	1.204604	2.090290	-3.054530
C	1.556633	2.704929	-1.862551
F	2.220797	3.864903	-1.819088
C	1.430252	2.477345	-4.456084
O	1.052242	1.806648	-5.406510
O	2.099050	3.650663	-4.569225
C	2.351116	4.076808	-5.916207
H	2.895579	5.033821	-5.833064
H	1.401015	4.217390	-6.470168
H	2.962391	3.327969	-6.459293
H	1.699302	2.946693	1.306486
H	0.900177	-9.143623	0.159475
H	-0.866566	-9.149441	0.483604
H	1.062246	-1.443175	-0.194856
$end

$rem
JOBTYPE		SP
EXCHANGE	HF
CORRELATION	pRIMP2
BASIS		cc-pvtz
METHOD		rimp2
AUX_BASIS	rimp2-cc-pvtz
SOLVENT_METHOD	PCM
PURECART	11111
SYMMETRY	false
MEM_TOTAL	110000
SCF_CONVERGENCE = 6
THRESH=10
GUI = 2
$end

$solvent
dielectric 4.90
$end
--------------------------------------------------------------

             Standard Nuclear Orientation (Angstroms)
    I     Atom           X                Y                Z
 ----------------------------------------------------------------
    1      C       0.0145600000    -8.5177020000     0.3205890000
    2      C      -0.1802110000    -7.6415750000    -0.7372400000
    3      S       0.2995530000    -7.6386340000     1.8423560000
    4      C      -0.1148730000    -6.2647850000    -0.3664880000
    5      H      -0.3680610000    -7.9660810000    -1.7685280000
    6      C       0.1312360000    -6.0727140000     1.0386370000
    7      C       0.2534350000    -4.7870490000     1.5881970000
    8      C      -0.2490140000    -5.1628010000    -1.2588310000
    9      C      -0.1225130000    -3.8748170000    -0.7096950000
   10      C       0.1210430000    -3.6839520000     0.6974300000
   11      O      -0.5059330000    -5.4997720000    -2.5533230000
   12      O       0.5126970000    -4.4590550000     2.8883690000
   13      C       0.0808690000    -5.3290630000     3.9276250000
   14      H       0.1731590000    -4.7556940000     4.8696560000
   15      H       0.7163630000    -6.2380950000     4.0074590000
   16      H      -0.9780720000    -5.6372620000     3.7895650000
   17      C      -0.2469490000    -4.5722610000    -3.6000640000
   18      H      -0.3445740000    -5.1397430000    -4.5448870000
   19      H       0.7798980000    -4.1531310000    -3.5320740000
   20      H      -0.9832610000    -3.7395310000    -3.6123780000
   21      C       0.1880090000    -2.3066540000     1.0642460000
   22      S      -0.2786440000    -2.3065010000    -1.5173600000
   23      C       0.0000000000    -1.4351850000     0.0000000000
   24      H       0.3730170000    -1.9781380000     2.0946850000
   25      C       0.0000000000     0.0000000000     0.0000000000
   26      S       0.4527920000     0.7833120000     1.5075410000
   27      C       1.2383970000     2.1455560000     0.7188730000
   28      C       0.4528750000     0.7828980000    -1.0678720000
   29      C       1.1459450000     1.9879560000    -0.6864100000
   30      S       0.3335560000     0.5705310000    -2.8055160000
   31      C       1.2046040000     2.0902900000    -3.0545300000
   32      C       1.5566330000     2.7049290000    -1.8625510000
   33      F       2.2207970000     3.8649030000    -1.8190880000
   34      C       1.4302520000     2.4773450000    -4.4560840000
   35      O       1.0522420000     1.8066480000    -5.4065100000
   36      O       2.0990500000     3.6506630000    -4.5692250000
   37      C       2.3511160000     4.0768080000    -5.9162070000
   38      H       2.8955790000     5.0338210000    -5.8330640000
   39      H       1.4010150000     4.2173900000    -6.4701680000
   40      H       2.9623910000     3.3279690000    -6.4592930000
   41      H       1.6993020000     2.9466930000     1.3064860000
   42      H       0.9001770000    -9.1436230000     0.1594750000
   43      H      -0.8665660000    -9.1494410000     0.4836040000
   44      H       1.0622460000    -1.4431750000    -0.1948560000
 ----------------------------------------------------------------

   11   -2755.3265206965      8.00e-07  Convergence criterion met
 Total energy in the final basis set =    -2755.3265206965
        RIMP2         total energy =     -2760.4231311972 a.u.

                    Orbital Energies (a.u.)
 --------------------------------------------------------------

 Alpha MOs
 -- Occupied --
-92.0138 -91.9966 -91.9784 -91.9594 -26.3425 -20.6150 -20.5880 -20.5878
-20.5615 -11.4095 -11.3809 -11.3097 -11.3095 -11.3069 -11.3039 -11.2976
-11.2937 -11.2889 -11.2853 -11.2844 -11.2843 -11.2837 -11.2835 -11.2745
-11.2721 -11.2603 -11.2592 -11.2509 -11.2394  -9.0127  -8.9968  -8.9810
 -8.9620  -6.6935  -6.6929  -6.6924  -6.6778  -6.6771  -6.6759  -6.6621
 -6.6612  -6.6599  -6.6432  -6.6423  -6.6413  -1.6596  -1.4674  -1.4112
 -1.4097  -1.3701  -1.2331  -1.2018  -1.1750  -1.1382  -1.1005  -1.0485
 -1.0447  -1.0248  -1.0038  -0.9974  -0.9644  -0.9565  -0.9495  -0.9422
 -0.8944  -0.8698  -0.8633  -0.8163  -0.7920  -0.7900  -0.7841  -0.7694
 -0.7569  -0.7370  -0.7246  -0.7103  -0.6963  -0.6959  -0.6848  -0.6818
 -0.6739  -0.6656  -0.6562  -0.6491  -0.6375  -0.6313  -0.6211  -0.6158
 -0.6111  -0.6001  -0.5938  -0.5770  -0.5708  -0.5661  -0.5599  -0.5560
 -0.5491  -0.5327  -0.5304  -0.5266  -0.5162  -0.5117  -0.5082  -0.5004
 -0.4846  -0.4796  -0.4775  -0.4733  -0.4706  -0.4651  -0.4591  -0.4474
 -0.4321  -0.3982  -0.3811  -0.3722  -0.3508  -0.3016  -0.2858  -0.2169

          Ground-State Mulliken Net Atomic Charges

     Atom                 Charge (a.u.)
  ----------------------------------------
      1 C                    -0.070614
      2 C                    -0.252309
      3 S                    -0.133495
      4 C                    -0.047466
      5 H                     0.194613
      6 C                    -0.048643
      7 C                     0.218252
      8 C                     0.229516
      9 C                    -0.066885
     10 C                    -0.035517
     11 O                    -0.334404
     12 O                    -0.344173
     13 C                    -0.082756
     14 H                     0.120012
     15 H                     0.092241
     16 H                     0.093122
     17 C                    -0.088535
     18 H                     0.124286
     19 H                     0.093373
     20 H                     0.091173
     21 C                    -0.305674
     22 S                    -0.104064
     23 C                     0.097944
     24 H                     0.199214
     25 C                     0.001919
     26 S                     0.077276
     27 C                    -0.210990
     28 C                    -0.038729
     29 C                    -0.104427
     30 S                     0.003628
     31 C                    -0.162636
     32 C                     0.404791
     33 F                    -0.207487
     34 C                     0.445435
     35 O                    -0.460545
     36 O                    -0.300760
     37 C                    -0.058630
     38 H                     0.121478
     39 H                     0.095183
     40 H                     0.095040
     41 H                     0.217496
     42 H                     0.118450
     43 H                     0.116087
     44 H                     0.208210
  ----------------------------------------
  Sum of atomic charges =     0.000000

                    Cartesian Multipole Moments
 -----------------------------------------------------------------
    Charge (ESU x 10^10)
                 0.0000
    Dipole Moment (Debye)
         X       1.8483      Y       1.4761      Z       2.5670
       Tot       3.4906
    Quadrupole Moments (Debye-Ang)
        XX    -197.6774     XY       7.2820     YY    -174.8224
        XZ      -6.6939     YZ      -2.3447     ZZ    -187.8480

 Total job time:  351.39s(wall), 10932.58s(cpu)
        *  Thank you very much for using Q-Chem.  Have a nice day.  *
