 Q-Chem 5.4, Q-Chem, Inc., Pleasanton, CA (2021)
 Q-Chem 5.4.0 for Intel X86 EM64T Linux

User input:
--------------------------------------------------------------
$molecule
0 1
C	-0.194917	-8.517702	0.254945
C	0.335839	-7.641575	-0.680596
S	-0.954772	-7.638634	1.603876
C	0.147576	-6.264785	-0.354585
H	0.854836	-7.966081	-1.591356
C	-0.567090	-6.072714	0.879999
C	-0.826731	-4.787049	1.379534
C	0.618405	-5.162801	-1.124384
C	0.362333	-3.874817	-0.622407
C	-0.355575	-3.683952	0.612067
O	1.253677	-5.499772	-2.281166
O	-1.463859	-4.459055	2.542174
C	-2.462679	-5.329063	3.060718
H	-2.997507	-4.755694	3.841678
H	-2.027179	-6.238095	3.530361
H	-3.185132	-5.637262	2.274283
C	2.124902	-4.572261	-2.916545
H	2.657438	-5.139743	-3.703073
H	2.867810	-4.153131	-2.204417
H	1.568770	-3.739531	-3.399269
C	-0.540061	-2.306654	0.936109
S	0.761887	-2.306501	-1.341474
C	-0.000000	-1.435185	-0.000000
H	-1.060690	-1.978138	1.844392
C	0.000000	0.000000	0.000000
S	0.157577	0.890937	1.507541
C	0.429889	2.439720	0.718873
C	0.157797	0.890576	-1.067872
C	0.396915	2.260004	-0.686410
S	0.118307	0.650207	-2.805516
C	0.417036	2.376229	-3.054530
C	0.537616	3.074202	-1.862551
F	0.764992	4.391378	-1.819088
C	0.496696	2.817118	-4.456084
O	0.370874	2.057582	-5.406510
O	0.723861	4.148418	-4.569225
C	0.814976	4.635075	-5.916207
H	0.999286	5.720591	-5.833064
H	-0.125909	4.442226	-6.470168
H	1.645504	4.140465	-6.459293
H	0.588993	3.350182	1.306486
H	0.587067	-9.143623	0.700788
H	-0.974683	-9.149441	-0.186556
H	0.938979	-1.443175	0.533530
$end

$rem
JOBTYPE		SP
EXCHANGE	HF
CORRELATION	pRIMP2
BASIS		cc-pvtz
METHOD		rimp2
AUX_BASIS	rimp2-cc-pvtz
SOLVENT_METHOD	PCM
PURECART	11111
SYMMETRY	false
MEM_TOTAL	110000
SCF_CONVERGENCE = 6
THRESH=10
GUI = 2
$end

$solvent
dielectric 4.90
$end
--------------------------------------------------------------

             Standard Nuclear Orientation (Angstroms)
    I     Atom           X                Y                Z
 ----------------------------------------------------------------
    1      C      -0.1949170000    -8.5177020000     0.2549450000
    2      C       0.3358390000    -7.6415750000    -0.6805960000
    3      S      -0.9547720000    -7.6386340000     1.6038760000
    4      C       0.1475760000    -6.2647850000    -0.3545850000
    5      H       0.8548360000    -7.9660810000    -1.5913560000
    6      C      -0.5670900000    -6.0727140000     0.8799990000
    7      C      -0.8267310000    -4.7870490000     1.3795340000
    8      C       0.6184050000    -5.1628010000    -1.1243840000
    9      C       0.3623330000    -3.8748170000    -0.6224070000
   10      C      -0.3555750000    -3.6839520000     0.6120670000
   11      O       1.2536770000    -5.4997720000    -2.2811660000
   12      O      -1.4638590000    -4.4590550000     2.5421740000
   13      C      -2.4626790000    -5.3290630000     3.0607180000
   14      H      -2.9975070000    -4.7556940000     3.8416780000
   15      H      -2.0271790000    -6.2380950000     3.5303610000
   16      H      -3.1851320000    -5.6372620000     2.2742830000
   17      C       2.1249020000    -4.5722610000    -2.9165450000
   18      H       2.6574380000    -5.1397430000    -3.7030730000
   19      H       2.8678100000    -4.1531310000    -2.2044170000
   20      H       1.5687700000    -3.7395310000    -3.3992690000
   21      C      -0.5400610000    -2.3066540000     0.9361090000
   22      S       0.7618870000    -2.3065010000    -1.3414740000
   23      C       0.0000000000    -1.4351850000     0.0000000000
   24      H      -1.0606900000    -1.9781380000     1.8443920000
   25      C       0.0000000000     0.0000000000     0.0000000000
   26      S       0.1575770000     0.8909370000     1.5075410000
   27      C       0.4298890000     2.4397200000     0.7188730000
   28      C       0.1577970000     0.8905760000    -1.0678720000
   29      C       0.3969150000     2.2600040000    -0.6864100000
   30      S       0.1183070000     0.6502070000    -2.8055160000
   31      C       0.4170360000     2.3762290000    -3.0545300000
   32      C       0.5376160000     3.0742020000    -1.8625510000
   33      F       0.7649920000     4.3913780000    -1.8190880000
   34      C       0.4966960000     2.8171180000    -4.4560840000
   35      O       0.3708740000     2.0575820000    -5.4065100000
   36      O       0.7238610000     4.1484180000    -4.5692250000
   37      C       0.8149760000     4.6350750000    -5.9162070000
   38      H       0.9992860000     5.7205910000    -5.8330640000
   39      H      -0.1259090000     4.4422260000    -6.4701680000
   40      H       1.6455040000     4.1404650000    -6.4592930000
   41      H       0.5889930000     3.3501820000     1.3064860000
   42      H       0.5870670000    -9.1436230000     0.7007880000
   43      H      -0.9746830000    -9.1494410000    -0.1865560000
   44      H       0.9389790000    -1.4431750000     0.5335300000
 ----------------------------------------------------------------

   11   -2755.3430496683      8.48e-07  Convergence criterion met
 Total energy in the final basis set =    -2755.3430496683
        RIMP2         total energy =     -2760.4324681275 a.u.

                    Orbital Energies (a.u.)
 --------------------------------------------------------------

 Alpha MOs
 -- Occupied --
-92.0136 -91.9941 -91.9804 -91.9595 -26.3421 -20.6145 -20.5881 -20.5880
-20.5611 -11.4089 -11.3806 -11.3100 -11.3099 -11.3092 -11.3036 -11.2970
-11.2929 -11.2886 -11.2846 -11.2843 -11.2842 -11.2835 -11.2833 -11.2748
-11.2725 -11.2605 -11.2594 -11.2510 -11.2398  -9.0125  -8.9944  -8.9825
 -8.9621  -6.6934  -6.6928  -6.6922  -6.6754  -6.6747  -6.6735  -6.6636
 -6.6628  -6.6615  -6.6433  -6.6424  -6.6414  -1.6592  -1.4670  -1.4115
 -1.4098  -1.3696  -1.2298  -1.2027  -1.1752  -1.1372  -1.1009  -1.0481
 -1.0437  -1.0240  -1.0046  -0.9979  -0.9633  -0.9572  -0.9493  -0.9416
 -0.8947  -0.8685  -0.8660  -0.8149  -0.7936  -0.7899  -0.7849  -0.7697
 -0.7562  -0.7379  -0.7242  -0.7138  -0.6972  -0.6897  -0.6844  -0.6809
 -0.6735  -0.6629  -0.6566  -0.6493  -0.6381  -0.6308  -0.6213  -0.6158
 -0.6110  -0.5992  -0.5930  -0.5768  -0.5712  -0.5651  -0.5593  -0.5582
 -0.5496  -0.5333  -0.5311  -0.5261  -0.5141  -0.5112  -0.5081  -0.5017
 -0.4848  -0.4784  -0.4766  -0.4736  -0.4695  -0.4675  -0.4606  -0.4480
 -0.4308  -0.3955  -0.3861  -0.3713  -0.3513  -0.2980  -0.2886  -0.2193

          Ground-State Mulliken Net Atomic Charges

     Atom                 Charge (a.u.)
  ----------------------------------------
      1 C                    -0.070546
      2 C                    -0.251420
      3 S                    -0.133042
      4 C                    -0.050163
      5 H                     0.194642
      6 C                    -0.048982
      7 C                     0.218699
      8 C                     0.231463
      9 C                    -0.073274
     10 C                    -0.012620
     11 O                    -0.334130
     12 O                    -0.343683
     13 C                    -0.082791
     14 H                     0.120043
     15 H                     0.092193
     16 H                     0.093278
     17 C                    -0.089249
     18 H                     0.124496
     19 H                     0.092823
     20 H                     0.092299
     21 C                    -0.337086
     22 S                    -0.097514
     23 C                     0.163012
     24 H                     0.199144
     25 C                    -0.033389
     26 S                     0.081741
     27 C                    -0.208818
     28 C                    -0.060867
     29 C                    -0.101568
     30 S                    -0.001022
     31 C                    -0.160401
     32 C                     0.405942
     33 F                    -0.208334
     34 C                     0.442130
     35 O                    -0.460133
     36 O                    -0.300511
     37 C                    -0.058779
     38 H                     0.121327
     39 H                     0.095205
     40 H                     0.094990
     41 H                     0.216663
     42 H                     0.118494
     43 H                     0.116270
     44 H                     0.203470
  ----------------------------------------
  Sum of atomic charges =     0.000000

                    Cartesian Multipole Moments
 -----------------------------------------------------------------
    Charge (ESU x 10^10)
                -0.0000
    Dipole Moment (Debye)
         X       1.1034      Y       1.6532      Z       3.1186
       Tot       3.6981
    Quadrupole Moments (Debye-Ang)
        XX    -190.8241     XY       0.4627     YY    -170.7960
        XZ     -10.6375     YZ      -3.6621     ZZ    -198.5234

 Total job time:  405.37s(wall), 11231.00s(cpu)
        *  Thank you very much for using Q-Chem.  Have a nice day.  *
