 Q-Chem 5.4, Q-Chem, Inc., Pleasanton, CA (2021)
 Q-Chem 5.4.0 for Intel X86 EM64T Linux

User input:
--------------------------------------------------------------
$molecule
0 1
C	-0.095966	-8.517702	0.306235
C	0.082807	-7.641575	-0.754415
S	-0.348635	-7.638634	1.833702
C	0.017401	-6.264785	-0.383675
H	0.259008	-7.966081	-1.787757
C	-0.231913	-6.072714	1.020885
C	-0.305044	-4.787049	1.579097
C	0.196549	-5.162801	-1.268082
C	0.127606	-3.874817	-0.708796
C	-0.124792	-3.683952	0.696769
O	0.397867	-5.499772	-2.572378
O	-0.506103	-4.459055	2.889532
C	-1.267335	-5.329063	3.718420
H	-1.502804	-4.755694	4.635204
H	-0.697471	-6.238095	4.010790
H	-2.215194	-5.637262	3.226506
C	0.999238	-4.572261	-3.467415
H	1.230649	-5.139743	-4.388648
H	1.940905	-4.153131	-3.052323
H	0.311543	-3.739531	-3.730819
C	-0.187323	-2.306654	1.064366
S	0.257128	-2.306501	-1.521154
C	0.000000	-1.435185	0.000000
H	-0.365903	-1.978138	2.095939
C	0.000000	0.000000	0.000000
S	0.693394	0.581209	1.507541
C	1.897536	1.592607	0.718873
C	0.693330	0.580791	-1.067872
C	1.756758	1.476132	-0.686410
S	0.508573	0.422041	-2.805516
C	1.846879	1.552232	-3.054530
C	2.387897	2.009402	-1.862551
F	3.408741	2.872264	-1.819088
C	2.191300	1.838768	-4.456084
O	1.606694	1.337806	-5.406510
O	3.221062	2.712584	-4.569225
C	3.603677	3.026817	-5.916207
H	4.442623	3.739898	-5.833064
H	2.758956	3.483875	-6.470168
H	3.921969	2.114070	-6.459293
H	2.604650	2.187790	1.306486
H	0.791346	-9.143623	0.457736
H	-0.979708	-9.149441	0.158056
H	1.064830	-1.443175	0.180205
$end

$rem
JOBTYPE		SP
EXCHANGE	HF
CORRELATION	pRIMP2
BASIS		cc-pvtz
METHOD		rimp2
AUX_BASIS	rimp2-cc-pvtz
SOLVENT_METHOD	PCM
PURECART	11111
SYMMETRY	false
MEM_TOTAL	110000
SCF_CONVERGENCE = 6
THRESH=10
GUI = 2
$end

$solvent
dielectric 4.90
$end
--------------------------------------------------------------

             Standard Nuclear Orientation (Angstroms)
    I     Atom           X                Y                Z
 ----------------------------------------------------------------
    1      C      -0.0959660000    -8.5177020000     0.3062350000
    2      C       0.0828070000    -7.6415750000    -0.7544150000
    3      S      -0.3486350000    -7.6386340000     1.8337020000
    4      C       0.0174010000    -6.2647850000    -0.3836750000
    5      H       0.2590080000    -7.9660810000    -1.7877570000
    6      C      -0.2319130000    -6.0727140000     1.0208850000
    7      C      -0.3050440000    -4.7870490000     1.5790970000
    8      C       0.1965490000    -5.1628010000    -1.2680820000
    9      C       0.1276060000    -3.8748170000    -0.7087960000
   10      C      -0.1247920000    -3.6839520000     0.6967690000
   11      O       0.3978670000    -5.4997720000    -2.5723780000
   12      O      -0.5061030000    -4.4590550000     2.8895320000
   13      C      -1.2673350000    -5.3290630000     3.7184200000
   14      H      -1.5028040000    -4.7556940000     4.6352040000
   15      H      -0.6974710000    -6.2380950000     4.0107900000
   16      H      -2.2151940000    -5.6372620000     3.2265060000
   17      C       0.9992380000    -4.5722610000    -3.4674150000
   18      H       1.2306490000    -5.1397430000    -4.3886480000
   19      H       1.9409050000    -4.1531310000    -3.0523230000
   20      H       0.3115430000    -3.7395310000    -3.7308190000
   21      C      -0.1873230000    -2.3066540000     1.0643660000
   22      S       0.2571280000    -2.3065010000    -1.5211540000
   23      C       0.0000000000    -1.4351850000     0.0000000000
   24      H      -0.3659030000    -1.9781380000     2.0959390000
   25      C       0.0000000000     0.0000000000     0.0000000000
   26      S       0.6933940000     0.5812090000     1.5075410000
   27      C       1.8975360000     1.5926070000     0.7188730000
   28      C       0.6933300000     0.5807910000    -1.0678720000
   29      C       1.7567580000     1.4761320000    -0.6864100000
   30      S       0.5085730000     0.4220410000    -2.8055160000
   31      C       1.8468790000     1.5522320000    -3.0545300000
   32      C       2.3878970000     2.0094020000    -1.8625510000
   33      F       3.4087410000     2.8722640000    -1.8190880000
   34      C       2.1913000000     1.8387680000    -4.4560840000
   35      O       1.6066940000     1.3378060000    -5.4065100000
   36      O       3.2210620000     2.7125840000    -4.5692250000
   37      C       3.6036770000     3.0268170000    -5.9162070000
   38      H       4.4426230000     3.7398980000    -5.8330640000
   39      H       2.7589560000     3.4838750000    -6.4701680000
   40      H       3.9219690000     2.1140700000    -6.4592930000
   41      H       2.6046500000     2.1877900000     1.3064860000
   42      H       0.7913460000    -9.1436230000     0.4577360000
   43      H      -0.9797080000    -9.1494410000     0.1580560000
   44      H       1.0648300000    -1.4431750000     0.1802050000
 ----------------------------------------------------------------

   11   -2755.2910171713      7.37e-07  Convergence criterion met
 Total energy in the final basis set =    -2755.2910171713
        RIMP2         total energy =     -2760.3969512430 a.u.

                    Orbital Energies (a.u.)
 --------------------------------------------------------------

 Alpha MOs
 -- Occupied --
-92.0094 -92.0000 -91.9739 -91.9584 -26.3439 -20.6155 -20.5871 -20.5867
-20.5622 -11.4103 -11.3831 -11.3188 -11.3085 -11.3077 -11.3029 -11.2985
-11.2929 -11.2894 -11.2876 -11.2835 -11.2829 -11.2802 -11.2794 -11.2729
-11.2680 -11.2581 -11.2573 -11.2501 -11.2380  -9.0094  -9.0003  -8.9766
 -8.9610  -6.6901  -6.6893  -6.6889  -6.6812  -6.6804  -6.6794  -6.6575
 -6.6568  -6.6554  -6.6422  -6.6413  -6.6403  -1.6611  -1.4680  -1.4101
 -1.4088  -1.3708  -1.2397  -1.1999  -1.1742  -1.1405  -1.0990  -1.0494
 -1.0443  -1.0276  -1.0021  -0.9951  -0.9660  -0.9555  -0.9497  -0.9423
 -0.8931  -0.8708  -0.8595  -0.8187  -0.7932  -0.7884  -0.7820  -0.7686
 -0.7570  -0.7374  -0.7261  -0.7135  -0.6956  -0.6949  -0.6854  -0.6818
 -0.6745  -0.6662  -0.6553  -0.6483  -0.6367  -0.6307  -0.6203  -0.6152
 -0.6106  -0.6016  -0.5930  -0.5787  -0.5702  -0.5670  -0.5594  -0.5560
 -0.5443  -0.5334  -0.5307  -0.5252  -0.5160  -0.5118  -0.5074  -0.5002
 -0.4832  -0.4822  -0.4777  -0.4733  -0.4694  -0.4630  -0.4549  -0.4463
 -0.4291  -0.3931  -0.3804  -0.3698  -0.3527  -0.3023  -0.2858  -0.2156

          Ground-State Mulliken Net Atomic Charges

     Atom                 Charge (a.u.)
  ----------------------------------------
      1 C                    -0.070514
      2 C                    -0.255677
      3 S                    -0.135534
      4 C                    -0.048810
      5 H                     0.194071
      6 C                    -0.050377
      7 C                     0.218515
      8 C                     0.227639
      9 C                    -0.070255
     10 C                    -0.030953
     11 O                    -0.334766
     12 O                    -0.343735
     13 C                    -0.082837
     14 H                     0.119727
     15 H                     0.091912
     16 H                     0.093011
     17 C                    -0.088158
     18 H                     0.123939
     19 H                     0.091857
     20 H                     0.091976
     21 C                    -0.312254
     22 S                    -0.100623
     23 C                     0.107811
     24 H                     0.198499
     25 C                    -0.066202
     26 S                     0.075402
     27 C                    -0.171850
     28 C                    -0.022693
     29 C                    -0.094604
     30 S                     0.032940
     31 C                    -0.154468
     32 C                     0.396460
     33 F                    -0.206773
     34 C                     0.447103
     35 O                    -0.460364
     36 O                    -0.300664
     37 C                    -0.058430
     38 H                     0.121545
     39 H                     0.095340
     40 H                     0.095081
     41 H                     0.218891
     42 H                     0.117834
     43 H                     0.115561
     44 H                     0.185429
  ----------------------------------------
  Sum of atomic charges =     0.000000

                    Cartesian Multipole Moments
 -----------------------------------------------------------------
    Charge (ESU x 10^10)
                 0.0000
    Dipole Moment (Debye)
         X       3.0927      Y       1.7992      Z       2.4574
       Tot       4.3406
    Quadrupole Moments (Debye-Ang)
        XX    -187.8682     XY       7.6356     YY    -182.3829
        XZ     -13.7711     YZ      -0.4779     ZZ    -191.0204

 Total job time:  331.92s(wall), 10790.91s(cpu)
        *  Thank you very much for using Q-Chem.  Have a nice day.  *
