 Q-Chem 5.4, Q-Chem, Inc., Pleasanton, CA (2021)
 Q-Chem 5.4.0 for Intel X86 EM64T Linux

User input:
--------------------------------------------------------------
$molecule
0 1
C	0.306235	-8.517702	0.095966
C	-0.754415	-7.641575	-0.082807
S	1.833702	-7.638634	0.348635
C	-0.383675	-6.264785	-0.017401
H	-1.787757	-7.966081	-0.259008
C	1.020885	-6.072714	0.231913
C	1.579097	-4.787049	0.305044
C	-1.268082	-5.162801	-0.196549
C	-0.708796	-3.874817	-0.127606
C	0.696769	-3.683952	0.124792
O	-2.572378	-5.499772	-0.397867
O	2.889532	-4.459055	0.506103
C	3.718420	-5.329063	1.267335
H	4.635204	-4.755694	1.502804
H	4.010790	-6.238095	0.697471
H	3.226506	-5.637262	2.215194
C	-3.467415	-4.572261	-0.999238
H	-4.388648	-5.139743	-1.230649
H	-3.052323	-4.153131	-1.940905
H	-3.730819	-3.739531	-0.311543
C	1.064366	-2.306654	0.187323
S	-1.521154	-2.306501	-0.257128
C	0.000000	-1.435185	0.000000
H	2.095939	-1.978138	0.365903
C	0.000000	0.000000	0.000000
S	0.234628	0.873813	1.507541
C	0.640889	2.392969	0.718873
C	0.234815	0.873434	-1.067872
C	0.592377	2.216811	-0.686410
S	0.174526	0.637422	-2.805516
C	0.622551	2.330840	-3.054530
C	0.803505	3.015647	-1.862551
F	1.144815	4.307994	-1.819088
C	0.740334	2.763108	-4.456084
O	0.548793	2.017428	-5.406510
O	1.082665	4.069544	-4.569225
C	1.215848	4.546407	-5.916207
H	1.494066	5.611729	-5.833064
H	0.261736	4.436296	-6.470168
H	2.000108	3.981294	-6.459293
H	0.878739	3.286099	1.306486
H	0.457736	-9.143623	-0.791346
H	0.158056	-9.149441	0.979708
H	0.180205	-1.443175	-1.064830
$end

$rem
JOBTYPE		SP
EXCHANGE	HF
CORRELATION	pRIMP2
BASIS		cc-pvtz
METHOD		rimp2
AUX_BASIS	rimp2-cc-pvtz
SOLVENT_METHOD	PCM
PURECART	11111
SYMMETRY	false
MEM_TOTAL	110000
SCF_CONVERGENCE = 6
THRESH=10
GUI = 2
$end

$solvent
dielectric 4.90
$end
--------------------------------------------------------------

             Standard Nuclear Orientation (Angstroms)
    I     Atom           X                Y                Z
 ----------------------------------------------------------------
    1      C       0.3062350000    -8.5177020000     0.0959660000
    2      C      -0.7544150000    -7.6415750000    -0.0828070000
    3      S       1.8337020000    -7.6386340000     0.3486350000
    4      C      -0.3836750000    -6.2647850000    -0.0174010000
    5      H      -1.7877570000    -7.9660810000    -0.2590080000
    6      C       1.0208850000    -6.0727140000     0.2319130000
    7      C       1.5790970000    -4.7870490000     0.3050440000
    8      C      -1.2680820000    -5.1628010000    -0.1965490000
    9      C      -0.7087960000    -3.8748170000    -0.1276060000
   10      C       0.6967690000    -3.6839520000     0.1247920000
   11      O      -2.5723780000    -5.4997720000    -0.3978670000
   12      O       2.8895320000    -4.4590550000     0.5061030000
   13      C       3.7184200000    -5.3290630000     1.2673350000
   14      H       4.6352040000    -4.7556940000     1.5028040000
   15      H       4.0107900000    -6.2380950000     0.6974710000
   16      H       3.2265060000    -5.6372620000     2.2151940000
   17      C      -3.4674150000    -4.5722610000    -0.9992380000
   18      H      -4.3886480000    -5.1397430000    -1.2306490000
   19      H      -3.0523230000    -4.1531310000    -1.9409050000
   20      H      -3.7308190000    -3.7395310000    -0.3115430000
   21      C       1.0643660000    -2.3066540000     0.1873230000
   22      S      -1.5211540000    -2.3065010000    -0.2571280000
   23      C       0.0000000000    -1.4351850000     0.0000000000
   24      H       2.0959390000    -1.9781380000     0.3659030000
   25      C       0.0000000000     0.0000000000     0.0000000000
   26      S       0.2346280000     0.8738130000     1.5075410000
   27      C       0.6408890000     2.3929690000     0.7188730000
   28      C       0.2348150000     0.8734340000    -1.0678720000
   29      C       0.5923770000     2.2168110000    -0.6864100000
   30      S       0.1745260000     0.6374220000    -2.8055160000
   31      C       0.6225510000     2.3308400000    -3.0545300000
   32      C       0.8035050000     3.0156470000    -1.8625510000
   33      F       1.1448150000     4.3079940000    -1.8190880000
   34      C       0.7403340000     2.7631080000    -4.4560840000
   35      O       0.5487930000     2.0174280000    -5.4065100000
   36      O       1.0826650000     4.0695440000    -4.5692250000
   37      C       1.2158480000     4.5464070000    -5.9162070000
   38      H       1.4940660000     5.6117290000    -5.8330640000
   39      H       0.2617360000     4.4362960000    -6.4701680000
   40      H       2.0001080000     3.9812940000    -6.4592930000
   41      H       0.8787390000     3.2860990000     1.3064860000
   42      H       0.4577360000    -9.1436230000    -0.7913460000
   43      H       0.1580560000    -9.1494410000     0.9797080000
   44      H       0.1802050000    -1.4431750000    -1.0648300000
 ----------------------------------------------------------------

   11   -2755.3443152116      6.81e-07  Convergence criterion met
 Total energy in the final basis set =    -2755.3443152116
        RIMP2         total energy =     -2760.4330810854 a.u.

                    Orbital Energies (a.u.)
 --------------------------------------------------------------

 Alpha MOs
 -- Occupied --
-92.0118 -92.0009 -91.9750 -91.9582 -26.3447 -20.6154 -20.5871 -20.5864
-20.5619 -11.4102 -11.3844 -11.3127 -11.3088 -11.3065 -11.3049 -11.2999
-11.2988 -11.2893 -11.2854 -11.2838 -11.2829 -11.2821 -11.2794 -11.2731
-11.2716 -11.2579 -11.2579 -11.2496 -11.2369  -9.0107  -9.0010  -8.9773
 -8.9608  -6.6914  -6.6908  -6.6904  -6.6820  -6.6813  -6.6802  -6.6584
 -6.6575  -6.6562  -6.6421  -6.6411  -6.6401  -1.6617  -1.4679  -1.4099
 -1.4088  -1.3706  -1.2301  -1.2021  -1.1732  -1.1372  -1.1006  -1.0469
 -1.0452  -1.0238  -1.0030  -0.9967  -0.9631  -0.9581  -0.9484  -0.9415
 -0.8927  -0.8711  -0.8645  -0.8145  -0.7949  -0.7901  -0.7844  -0.7680
 -0.7590  -0.7351  -0.7265  -0.7104  -0.7010  -0.6945  -0.6854  -0.6797
 -0.6745  -0.6652  -0.6552  -0.6483  -0.6347  -0.6302  -0.6200  -0.6149
 -0.6109  -0.5993  -0.5926  -0.5772  -0.5706  -0.5647  -0.5575  -0.5545
 -0.5506  -0.5317  -0.5284  -0.5251  -0.5128  -0.5090  -0.5070  -0.5013
 -0.4855  -0.4811  -0.4760  -0.4746  -0.4716  -0.4675  -0.4599  -0.4458
 -0.4225  -0.4001  -0.3847  -0.3698  -0.3505  -0.3029  -0.2890  -0.2207

          Ground-State Mulliken Net Atomic Charges

     Atom                 Charge (a.u.)
  ----------------------------------------
      1 C                    -0.070343
      2 C                    -0.259439
      3 S                    -0.135102
      4 C                    -0.044884
      5 H                     0.193507
      6 C                    -0.051671
      7 C                     0.222595
      8 C                     0.229145
      9 C                    -0.084302
     10 C                    -0.053740
     11 O                    -0.335635
     12 O                    -0.343445
     13 C                    -0.082540
     14 H                     0.119902
     15 H                     0.092087
     16 H                     0.092570
     17 C                    -0.086202
     18 H                     0.122669
     19 H                     0.092680
     20 H                     0.090076
     21 C                    -0.237504
     22 S                    -0.071809
     23 C                     0.048298
     24 H                     0.207430
     25 C                    -0.077398
     26 S                     0.088288
     27 C                    -0.178802
     28 C                     0.007249
     29 C                    -0.104445
     30 S                     0.004395
     31 C                    -0.159106
     32 C                     0.398117
     33 F                    -0.205457
     34 C                     0.444365
     35 O                    -0.461167
     36 O                    -0.300902
     37 C                    -0.058450
     38 H                     0.121494
     39 H                     0.095231
     40 H                     0.095212
     41 H                     0.217418
     42 H                     0.117517
     43 H                     0.115009
     44 H                     0.187089
  ----------------------------------------
  Sum of atomic charges =     0.000000

                    Cartesian Multipole Moments
 -----------------------------------------------------------------
    Charge (ESU x 10^10)
                -0.0000
    Dipole Moment (Debye)
         X       0.7637      Y       2.9694      Z       2.3450
       Tot       3.8600
    Quadrupole Moments (Debye-Ang)
        XX    -186.7838     XY       7.6248     YY    -175.4295
        XZ       5.9322     YZ      -6.8531     ZZ    -201.9348

 Total job time:  361.76s(wall), 11121.33s(cpu)
        *  Thank you very much for using Q-Chem.  Have a nice day.  *
