 Q-Chem 5.4, Q-Chem, Inc., Pleasanton, CA (2021)
 Q-Chem 5.4.0 for Intel X86 EM64T Linux

User input:
--------------------------------------------------------------
$molecule
0 1
C	0.236226	-8.517702	-0.217225
C	-0.448921	-7.641575	0.611939
S	1.218777	-7.638634	-1.413715
C	-0.206907	-6.264785	0.323572
H	-1.118185	-7.966081	1.418739
C	0.711285	-6.072714	-0.768156
C	1.053725	-4.787049	-1.215016
C	-0.804258	-5.162801	0.999917
C	-0.464908	-3.874817	0.550033
C	0.456457	-3.683952	-0.541024
O	-1.630752	-5.499772	2.028811
O	1.883064	-4.459055	-2.249357
C	2.956754	-5.329063	-2.586579
H	3.619069	-4.755694	-3.262802
H	2.609423	-6.238095	-3.124711
H	3.531667	-5.637262	-1.686639
C	-2.599073	-4.572261	2.503251
H	-3.260097	-5.139743	3.185356
H	-3.207034	-4.153131	1.672937
H	-2.135214	-3.739531	3.075213
C	0.694410	-2.306654	-0.828107
S	-0.983256	-2.306501	1.188794
C	0.000000	-1.435185	0.000000
H	1.364851	-1.978138	-1.632185
C	0.000000	0.000000	0.000000
S	0.452792	0.783312	1.507541
C	1.238397	2.145556	0.718873
C	0.452875	0.782898	-1.067872
C	1.145945	1.987956	-0.686410
S	0.333556	0.570531	-2.805516
C	1.204604	2.090290	-3.054530
C	1.556633	2.704929	-1.862551
F	2.220797	3.864903	-1.819088
C	1.430252	2.477345	-4.456084
O	1.052242	1.806648	-5.406510
O	2.099050	3.650663	-4.569225
C	2.351116	4.076808	-5.916207
H	2.895579	5.033821	-5.833064
H	1.401015	4.217390	-6.470168
H	2.962391	3.327969	-6.459293
H	1.699302	2.946693	1.306486
H	-0.456457	-9.143623	-0.792084
H	0.927480	-9.149441	0.352973
H	-0.832067	-1.443175	-0.688477
$end

$rem
JOBTYPE		SP
EXCHANGE	HF
CORRELATION	pRIMP2
BASIS		cc-pvtz
METHOD		rimp2
AUX_BASIS	rimp2-cc-pvtz
SOLVENT_METHOD	PCM
PURECART	11111
SYMMETRY	false
MEM_TOTAL	110000
SCF_CONVERGENCE = 6
THRESH=10
GUI = 2
$end

$solvent
dielectric 4.90
$end
--------------------------------------------------------------

             Standard Nuclear Orientation (Angstroms)
    I     Atom           X                Y                Z
 ----------------------------------------------------------------
    1      C       0.2362260000    -8.5177020000    -0.2172250000
    2      C      -0.4489210000    -7.6415750000     0.6119390000
    3      S       1.2187770000    -7.6386340000    -1.4137150000
    4      C      -0.2069070000    -6.2647850000     0.3235720000
    5      H      -1.1181850000    -7.9660810000     1.4187390000
    6      C       0.7112850000    -6.0727140000    -0.7681560000
    7      C       1.0537250000    -4.7870490000    -1.2150160000
    8      C      -0.8042580000    -5.1628010000     0.9999170000
    9      C      -0.4649080000    -3.8748170000     0.5500330000
   10      C       0.4564570000    -3.6839520000    -0.5410240000
   11      O      -1.6307520000    -5.4997720000     2.0288110000
   12      O       1.8830640000    -4.4590550000    -2.2493570000
   13      C       2.9567540000    -5.3290630000    -2.5865790000
   14      H       3.6190690000    -4.7556940000    -3.2628020000
   15      H       2.6094230000    -6.2380950000    -3.1247110000
   16      H       3.5316670000    -5.6372620000    -1.6866390000
   17      C      -2.5990730000    -4.5722610000     2.5032510000
   18      H      -3.2600970000    -5.1397430000     3.1853560000
   19      H      -3.2070340000    -4.1531310000     1.6729370000
   20      H      -2.1352140000    -3.7395310000     3.0752130000
   21      C       0.6944100000    -2.3066540000    -0.8281070000
   22      S      -0.9832560000    -2.3065010000     1.1887940000
   23      C       0.0000000000    -1.4351850000     0.0000000000
   24      H       1.3648510000    -1.9781380000    -1.6321850000
   25      C       0.0000000000     0.0000000000     0.0000000000
   26      S       0.4527920000     0.7833120000     1.5075410000
   27      C       1.2383970000     2.1455560000     0.7188730000
   28      C       0.4528750000     0.7828980000    -1.0678720000
   29      C       1.1459450000     1.9879560000    -0.6864100000
   30      S       0.3335560000     0.5705310000    -2.8055160000
   31      C       1.2046040000     2.0902900000    -3.0545300000
   32      C       1.5566330000     2.7049290000    -1.8625510000
   33      F       2.2207970000     3.8649030000    -1.8190880000
   34      C       1.4302520000     2.4773450000    -4.4560840000
   35      O       1.0522420000     1.8066480000    -5.4065100000
   36      O       2.0990500000     3.6506630000    -4.5692250000
   37      C       2.3511160000     4.0768080000    -5.9162070000
   38      H       2.8955790000     5.0338210000    -5.8330640000
   39      H       1.4010150000     4.2173900000    -6.4701680000
   40      H       2.9623910000     3.3279690000    -6.4592930000
   41      H       1.6993020000     2.9466930000     1.3064860000
   42      H      -0.4564570000    -9.1436230000    -0.7920840000
   43      H       0.9274800000    -9.1494410000     0.3529730000
   44      H      -0.8320670000    -1.4431750000    -0.6884770000
 ----------------------------------------------------------------

   11   -2755.3278998831      7.43e-07  Convergence criterion met
 Total energy in the final basis set =    -2755.3278998831
        RIMP2         total energy =     -2760.4222913698 a.u.

                    Orbital Energies (a.u.)
 --------------------------------------------------------------

 Alpha MOs
 -- Occupied --
-92.0115 -92.0015 -91.9791 -91.9577 -26.3447 -20.6156 -20.5871 -20.5868
-20.5621 -11.4104 -11.3842 -11.3121 -11.3090 -11.3074 -11.3039 -11.2990
-11.2985 -11.2894 -11.2864 -11.2847 -11.2836 -11.2824 -11.2797 -11.2727
-11.2721 -11.2580 -11.2571 -11.2492 -11.2359  -9.0106  -9.0016  -8.9812
 -8.9603  -6.6913  -6.6906  -6.6902  -6.6826  -6.6819  -6.6808  -6.6624
 -6.6615  -6.6602  -6.6415  -6.6406  -6.6396  -1.6616  -1.4681  -1.4104
 -1.4086  -1.3708  -1.2318  -1.2025  -1.1732  -1.1380  -1.1004  -1.0471
 -1.0459  -1.0243  -1.0031  -0.9975  -0.9630  -0.9593  -0.9486  -0.9415
 -0.8936  -0.8711  -0.8638  -0.8109  -0.7998  -0.7904  -0.7837  -0.7672
 -0.7584  -0.7362  -0.7265  -0.7105  -0.6997  -0.6946  -0.6855  -0.6806
 -0.6746  -0.6643  -0.6560  -0.6484  -0.6371  -0.6305  -0.6196  -0.6147
 -0.6121  -0.5997  -0.5931  -0.5777  -0.5714  -0.5658  -0.5583  -0.5556
 -0.5433  -0.5323  -0.5305  -0.5265  -0.5125  -0.5093  -0.5074  -0.5016
 -0.4851  -0.4820  -0.4768  -0.4745  -0.4695  -0.4667  -0.4604  -0.4463
 -0.4280  -0.3967  -0.3844  -0.3697  -0.3512  -0.3017  -0.2887  -0.2179

          Ground-State Mulliken Net Atomic Charges

     Atom                 Charge (a.u.)
  ----------------------------------------
      1 C                    -0.070055
      2 C                    -0.263451
      3 S                    -0.136588
      4 C                    -0.046309
      5 H                     0.192962
      6 C                    -0.053337
      7 C                     0.222380
      8 C                     0.230393
      9 C                    -0.073038
     10 C                    -0.037768
     11 O                    -0.334843
     12 O                    -0.342928
     13 C                    -0.082871
     14 H                     0.120363
     15 H                     0.092229
     16 H                     0.092604
     17 C                    -0.087280
     18 H                     0.124043
     19 H                     0.092638
     20 H                     0.089774
     21 C                    -0.309833
     22 S                    -0.087812
     23 C                     0.097788
     24 H                     0.211004
     25 C                    -0.056738
     26 S                     0.097785
     27 C                    -0.189050
     28 C                    -0.049962
     29 C                    -0.085795
     30 S                     0.018929
     31 C                    -0.155836
     32 C                     0.399200
     33 F                    -0.205951
     34 C                     0.444960
     35 O                    -0.460830
     36 O                    -0.300898
     37 C                    -0.058358
     38 H                     0.121634
     39 H                     0.095289
     40 H                     0.095216
     41 H                     0.216411
     42 H                     0.116925
     43 H                     0.114595
     44 H                     0.202411
  ----------------------------------------
  Sum of atomic charges =     0.000000

                    Cartesian Multipole Moments
 -----------------------------------------------------------------
    Charge (ESU x 10^10)
                -0.0000
    Dipole Moment (Debye)
         X       0.9394      Y       2.7485      Z       2.5161
       Tot       3.8428
    Quadrupole Moments (Debye-Ang)
        XX    -184.1788     XY       9.5576     YY    -179.8401
        XZ     -12.0556     YZ      -9.6060     ZZ    -201.1581

 Total job time:  342.19s(wall), 11216.15s(cpu)
        *  Thank you very much for using Q-Chem.  Have a nice day.  *
