 Q-Chem 5.4, Q-Chem, Inc., Pleasanton, CA (2021)
 Q-Chem 5.4.0 for Intel X86 EM64T Linux

User input:
--------------------------------------------------------------
$molecule
0 1
C	-0.172904	-8.517702	-0.270358
C	0.524688	-7.641575	0.548363
S	-1.180599	-7.638634	-1.445750
C	0.282727	-6.264785	0.259951
H	1.203014	-7.966081	1.347559
C	-0.632972	-6.072714	-0.833868
C	-1.013580	-4.787049	-1.248701
C	0.845068	-5.162801	0.965673
C	0.460946	-3.874817	0.553357
C	-0.453541	-3.683952	-0.543470
O	1.714812	-5.499772	1.958276
O	-1.888193	-4.459055	-2.245053
C	-2.033848	-5.329063	-3.360989
H	-2.584788	-4.755694	-4.130667
H	-2.624118	-6.238095	-3.112380
H	-1.047748	-5.637262	-3.770895
C	2.013896	-4.572261	2.994272
H	2.570853	-5.139743	3.763700
H	1.090625	-4.153131	3.448815
H	2.657717	-3.739531	2.636780
C	-0.694943	-2.306654	-0.827659
S	0.999993	-2.306501	1.174750
C	0.000000	-1.435185	0.000000
H	-1.370385	-1.978138	-1.627541
C	0.000000	0.000000	0.000000
S	0.693394	0.581209	1.507541
C	1.897536	1.592607	0.718873
C	0.693330	0.580791	-1.067872
C	1.756758	1.476132	-0.686410
S	0.508573	0.422041	-2.805516
C	1.846879	1.552232	-3.054530
C	2.387897	2.009402	-1.862551
F	3.408741	2.872264	-1.819088
C	2.191300	1.838768	-4.456084
O	1.606694	1.337806	-5.406510
O	3.221062	2.712584	-4.569225
C	3.603677	3.026817	-5.916207
H	4.442623	3.739898	-5.833064
H	2.758956	3.483875	-6.470168
H	3.921969	2.114070	-6.459293
H	2.604650	2.187790	1.306486
H	-0.859314	-9.143623	0.311979
H	0.508666	-9.149441	-0.852097
H	-0.822504	-1.443175	0.699874
$end

$rem
JOBTYPE		SP
EXCHANGE	HF
CORRELATION	pRIMP2
BASIS		cc-pvtz
METHOD		rimp2
AUX_BASIS	rimp2-cc-pvtz
SOLVENT_METHOD	PCM
PURECART	11111
SYMMETRY	false
MEM_TOTAL	110000
SCF_CONVERGENCE = 6
THRESH=10
GUI = 2
$end

$solvent
dielectric 4.90
$end
--------------------------------------------------------------

             Standard Nuclear Orientation (Angstroms)
    I     Atom           X                Y                Z
 ----------------------------------------------------------------
    1      C      -0.1729040000    -8.5177020000    -0.2703580000
    2      C       0.5246880000    -7.6415750000     0.5483630000
    3      S      -1.1805990000    -7.6386340000    -1.4457500000
    4      C       0.2827270000    -6.2647850000     0.2599510000
    5      H       1.2030140000    -7.9660810000     1.3475590000
    6      C      -0.6329720000    -6.0727140000    -0.8338680000
    7      C      -1.0135800000    -4.7870490000    -1.2487010000
    8      C       0.8450680000    -5.1628010000     0.9656730000
    9      C       0.4609460000    -3.8748170000     0.5533570000
   10      C      -0.4535410000    -3.6839520000    -0.5434700000
   11      O       1.7148120000    -5.4997720000     1.9582760000
   12      O      -1.8881930000    -4.4590550000    -2.2450530000
   13      C      -2.0338480000    -5.3290630000    -3.3609890000
   14      H      -2.5847880000    -4.7556940000    -4.1306670000
   15      H      -2.6241180000    -6.2380950000    -3.1123800000
   16      H      -1.0477480000    -5.6372620000    -3.7708950000
   17      C       2.0138960000    -4.5722610000     2.9942720000
   18      H       2.5708530000    -5.1397430000     3.7637000000
   19      H       1.0906250000    -4.1531310000     3.4488150000
   20      H       2.6577170000    -3.7395310000     2.6367800000
   21      C      -0.6949430000    -2.3066540000    -0.8276590000
   22      S       0.9999930000    -2.3065010000     1.1747500000
   23      C       0.0000000000    -1.4351850000     0.0000000000
   24      H      -1.3703850000    -1.9781380000    -1.6275410000
   25      C       0.0000000000     0.0000000000     0.0000000000
   26      S       0.6933940000     0.5812090000     1.5075410000
   27      C       1.8975360000     1.5926070000     0.7188730000
   28      C       0.6933300000     0.5807910000    -1.0678720000
   29      C       1.7567580000     1.4761320000    -0.6864100000
   30      S       0.5085730000     0.4220410000    -2.8055160000
   31      C       1.8468790000     1.5522320000    -3.0545300000
   32      C       2.3878970000     2.0094020000    -1.8625510000
   33      F       3.4087410000     2.8722640000    -1.8190880000
   34      C       2.1913000000     1.8387680000    -4.4560840000
   35      O       1.6066940000     1.3378060000    -5.4065100000
   36      O       3.2210620000     2.7125840000    -4.5692250000
   37      C       3.6036770000     3.0268170000    -5.9162070000
   38      H       4.4426230000     3.7398980000    -5.8330640000
   39      H       2.7589560000     3.4838750000    -6.4701680000
   40      H       3.9219690000     2.1140700000    -6.4592930000
   41      H       2.6046500000     2.1877900000     1.3064860000
   42      H      -0.8593140000    -9.1436230000     0.3119790000
   43      H       0.5086660000    -9.1494410000    -0.8520970000
   44      H      -0.8225040000    -1.4431750000     0.6998740000
 ----------------------------------------------------------------

   11   -2755.2904657542      8.36e-07  Convergence criterion met
 Total energy in the final basis set =    -2755.2904657542
        RIMP2         total energy =     -2760.3912625327 a.u.

                    Orbital Energies (a.u.)
 --------------------------------------------------------------

 Alpha MOs
 -- Occupied --
-92.0151 -92.0072 -91.9744 -91.9548 -26.3460 -20.6160 -20.5856 -20.5837
-20.5626 -11.4111 -11.3865 -11.3289 -11.3123 -11.3071 -11.3013 -11.2996
-11.2897 -11.2881 -11.2832 -11.2813 -11.2789 -11.2780 -11.2733 -11.2721
-11.2681 -11.2550 -11.2514 -11.2461 -11.2287  -9.0147  -9.0070  -8.9768
 -8.9575  -6.6954  -6.6946  -6.6943  -6.6880  -6.6872  -6.6862  -6.6578
 -6.6569  -6.6556  -6.6387  -6.6378  -6.6368  -1.6630  -1.4686  -1.4079
 -1.4066  -1.3713  -1.2366  -1.2005  -1.1706  -1.1407  -1.0971  -1.0479
 -1.0432  -1.0278  -1.0019  -0.9940  -0.9655  -0.9595  -0.9462  -0.9397
 -0.8918  -0.8717  -0.8612  -0.8159  -0.7990  -0.7889  -0.7814  -0.7644
 -0.7581  -0.7370  -0.7278  -0.7167  -0.6964  -0.6886  -0.6858  -0.6791
 -0.6751  -0.6613  -0.6544  -0.6468  -0.6361  -0.6302  -0.6166  -0.6130
 -0.6109  -0.6022  -0.5903  -0.5782  -0.5690  -0.5636  -0.5559  -0.5550
 -0.5379  -0.5337  -0.5304  -0.5260  -0.5141  -0.5087  -0.5061  -0.4990
 -0.4865  -0.4825  -0.4765  -0.4744  -0.4714  -0.4670  -0.4529  -0.4431
 -0.4264  -0.3917  -0.3832  -0.3665  -0.3504  -0.3076  -0.2858  -0.2129

          Ground-State Mulliken Net Atomic Charges

     Atom                 Charge (a.u.)
  ----------------------------------------
      1 C                    -0.068789
      2 C                    -0.283629
      3 S                    -0.142531
      4 C                    -0.039020
      5 H                     0.190255
      6 C                    -0.055574
      7 C                     0.223464
      8 C                     0.213571
      9 C                    -0.077614
     10 C                    -0.056543
     11 O                    -0.336182
     12 O                    -0.344037
     13 C                    -0.082614
     14 H                     0.119754
     15 H                     0.091958
     16 H                     0.092726
     17 C                    -0.087108
     18 H                     0.122812
     19 H                     0.090486
     20 H                     0.088793
     21 C                    -0.271525
     22 S                    -0.087603
     23 C                     0.044809
     24 H                     0.209850
     25 C                    -0.156010
     26 S                     0.089532
     27 C                    -0.133003
     28 C                     0.097744
     29 C                    -0.120479
     30 S                     0.039437
     31 C                    -0.154963
     32 C                     0.399860
     33 F                    -0.204713
     34 C                     0.447161
     35 O                    -0.461343
     36 O                    -0.301125
     37 C                    -0.058266
     38 H                     0.121653
     39 H                     0.095247
     40 H                     0.095529
     41 H                     0.221751
     42 H                     0.114083
     43 H                     0.111723
     44 H                     0.200473
  ----------------------------------------
  Sum of atomic charges =     0.000000

                    Cartesian Multipole Moments
 -----------------------------------------------------------------
    Charge (ESU x 10^10)
                 0.0000
    Dipole Moment (Debye)
         X       2.5918      Y       4.3050      Z       3.0284
       Tot       5.8670
    Quadrupole Moments (Debye-Ang)
        XX    -189.2146     XY       6.9522     YY    -196.4410
        XZ       0.4133     YZ      -7.1444     ZZ    -188.5667

 Total job time:  327.30s(wall), 10554.01s(cpu)
        *  Thank you very much for using Q-Chem.  Have a nice day.  *
