 Q-Chem 5.4, Q-Chem, Inc., Pleasanton, CA (2021)
 Q-Chem 5.4.0 for Intel X86 EM64T Linux

User input:
--------------------------------------------------------------
$molecule
0 1
C	0.194917	-8.517702	-0.254945
C	-0.335839	-7.641575	0.680596
S	0.954772	-7.638634	-1.603876
C	-0.147576	-6.264785	0.354585
H	-0.854836	-7.966081	1.591356
C	0.567090	-6.072714	-0.879999
C	0.826731	-4.787049	-1.379534
C	-0.618405	-5.162801	1.124384
C	-0.362333	-3.874817	0.622407
C	0.355575	-3.683952	-0.612067
O	-1.253677	-5.499772	2.281166
O	1.463859	-4.459055	-2.542174
C	2.462679	-5.329063	-3.060718
H	2.997507	-4.755694	-3.841678
H	2.027179	-6.238095	-3.530361
H	3.185132	-5.637262	-2.274283
C	-2.124902	-4.572261	2.916545
H	-2.657438	-5.139743	3.703073
H	-2.867810	-4.153131	2.204417
H	-1.568770	-3.739531	3.399269
C	0.540061	-2.306654	-0.936109
S	-0.761887	-2.306501	1.341474
C	0.000000	-1.435185	0.000000
H	1.060690	-1.978138	-1.844392
C	0.000000	0.000000	0.000000
S	0.234628	0.873813	1.507541
C	0.640889	2.392969	0.718873
C	0.234815	0.873434	-1.067872
C	0.592377	2.216811	-0.686410
S	0.174526	0.637422	-2.805516
C	0.622551	2.330840	-3.054530
C	0.803505	3.015647	-1.862551
F	1.144815	4.307994	-1.819088
C	0.740334	2.763108	-4.456084
O	0.548793	2.017428	-5.406510
O	1.082665	4.069544	-4.569225
C	1.215848	4.546407	-5.916207
H	1.494066	5.611729	-5.833064
H	0.261736	4.436296	-6.470168
H	2.000108	3.981294	-6.459293
H	0.878739	3.286099	1.306486
H	-0.587067	-9.143623	-0.700788
H	0.974683	-9.149441	0.186556
H	-0.938979	-1.443175	-0.533530
$end

$rem
JOBTYPE		SP
EXCHANGE	HF
CORRELATION	pRIMP2
BASIS		cc-pvtz
METHOD		rimp2
AUX_BASIS	rimp2-cc-pvtz
SOLVENT_METHOD	PCM
PURECART	11111
SYMMETRY	false
MEM_TOTAL	110000
SCF_CONVERGENCE = 6
THRESH=10
GUI = 2
$end

$solvent
dielectric 4.90
$end
--------------------------------------------------------------

             Standard Nuclear Orientation (Angstroms)
    I     Atom           X                Y                Z
 ----------------------------------------------------------------
    1      C       0.1949170000    -8.5177020000    -0.2549450000
    2      C      -0.3358390000    -7.6415750000     0.6805960000
    3      S       0.9547720000    -7.6386340000    -1.6038760000
    4      C      -0.1475760000    -6.2647850000     0.3545850000
    5      H      -0.8548360000    -7.9660810000     1.5913560000
    6      C       0.5670900000    -6.0727140000    -0.8799990000
    7      C       0.8267310000    -4.7870490000    -1.3795340000
    8      C      -0.6184050000    -5.1628010000     1.1243840000
    9      C      -0.3623330000    -3.8748170000     0.6224070000
   10      C       0.3555750000    -3.6839520000    -0.6120670000
   11      O      -1.2536770000    -5.4997720000     2.2811660000
   12      O       1.4638590000    -4.4590550000    -2.5421740000
   13      C       2.4626790000    -5.3290630000    -3.0607180000
   14      H       2.9975070000    -4.7556940000    -3.8416780000
   15      H       2.0271790000    -6.2380950000    -3.5303610000
   16      H       3.1851320000    -5.6372620000    -2.2742830000
   17      C      -2.1249020000    -4.5722610000     2.9165450000
   18      H      -2.6574380000    -5.1397430000     3.7030730000
   19      H      -2.8678100000    -4.1531310000     2.2044170000
   20      H      -1.5687700000    -3.7395310000     3.3992690000
   21      C       0.5400610000    -2.3066540000    -0.9361090000
   22      S      -0.7618870000    -2.3065010000     1.3414740000
   23      C       0.0000000000    -1.4351850000     0.0000000000
   24      H       1.0606900000    -1.9781380000    -1.8443920000
   25      C       0.0000000000     0.0000000000     0.0000000000
   26      S       0.2346280000     0.8738130000     1.5075410000
   27      C       0.6408890000     2.3929690000     0.7188730000
   28      C       0.2348150000     0.8734340000    -1.0678720000
   29      C       0.5923770000     2.2168110000    -0.6864100000
   30      S       0.1745260000     0.6374220000    -2.8055160000
   31      C       0.6225510000     2.3308400000    -3.0545300000
   32      C       0.8035050000     3.0156470000    -1.8625510000
   33      F       1.1448150000     4.3079940000    -1.8190880000
   34      C       0.7403340000     2.7631080000    -4.4560840000
   35      O       0.5487930000     2.0174280000    -5.4065100000
   36      O       1.0826650000     4.0695440000    -4.5692250000
   37      C       1.2158480000     4.5464070000    -5.9162070000
   38      H       1.4940660000     5.6117290000    -5.8330640000
   39      H       0.2617360000     4.4362960000    -6.4701680000
   40      H       2.0001080000     3.9812940000    -6.4592930000
   41      H       0.8787390000     3.2860990000     1.3064860000
   42      H      -0.5870670000    -9.1436230000    -0.7007880000
   43      H       0.9746830000    -9.1494410000     0.1865560000
   44      H      -0.9389790000    -1.4431750000    -0.5335300000
 ----------------------------------------------------------------

   11   -2755.3395751087      8.06e-07  Convergence criterion met
 Total energy in the final basis set =    -2755.3395751087
        RIMP2         total energy =     -2760.4311379730 a.u.

                    Orbital Energies (a.u.)
 --------------------------------------------------------------

 Alpha MOs
 -- Occupied --
-92.0137 -91.9983 -91.9817 -91.9588 -26.3435 -20.6152 -20.5885 -20.5873
-20.5617 -11.4098 -11.3826 -11.3098 -11.3097 -11.3076 -11.3038 -11.2985
-11.2963 -11.2891 -11.2856 -11.2853 -11.2850 -11.2827 -11.2826 -11.2737
-11.2735 -11.2596 -11.2591 -11.2504 -11.2386  -9.0124  -8.9985  -8.9838
 -8.9614  -6.6932  -6.6926  -6.6921  -6.6795  -6.6788  -6.6776  -6.6649
 -6.6641  -6.6628  -6.6426  -6.6417  -6.6406  -1.6605  -1.4677  -1.4118
 -1.4091  -1.3704  -1.2302  -1.2032  -1.1746  -1.1373  -1.1013  -1.0475
 -1.0457  -1.0234  -1.0043  -0.9988  -0.9627  -0.9595  -0.9493  -0.9411
 -0.8950  -0.8711  -0.8647  -0.8094  -0.8009  -0.7902  -0.7846  -0.7684
 -0.7576  -0.7372  -0.7254  -0.7099  -0.6996  -0.6948  -0.6850  -0.6812
 -0.6742  -0.6642  -0.6568  -0.6491  -0.6382  -0.6311  -0.6207  -0.6153
 -0.6123  -0.5987  -0.5934  -0.5775  -0.5715  -0.5655  -0.5597  -0.5542
 -0.5459  -0.5347  -0.5313  -0.5276  -0.5133  -0.5091  -0.5083  -0.5023
 -0.4853  -0.4821  -0.4768  -0.4741  -0.4698  -0.4668  -0.4622  -0.4476
 -0.4312  -0.3957  -0.3863  -0.3711  -0.3505  -0.2993  -0.2893  -0.2187

          Ground-State Mulliken Net Atomic Charges

     Atom                 Charge (a.u.)
  ----------------------------------------
      1 C                    -0.070533
      2 C                    -0.255972
      3 S                    -0.133749
      4 C                    -0.048839
      5 H                     0.193866
      6 C                    -0.051615
      7 C                     0.220420
      8 C                     0.233579
      9 C                    -0.076577
     10 C                    -0.030654
     11 O                    -0.334211
     12 O                    -0.342847
     13 C                    -0.083052
     14 H                     0.120822
     15 H                     0.092316
     16 H                     0.092732
     17 C                    -0.087702
     18 H                     0.124459
     19 H                     0.093193
     20 H                     0.090077
     21 C                    -0.326140
     22 S                    -0.088975
     23 C                     0.126305
     24 H                     0.205793
     25 C                    -0.042715
     26 S                     0.091991
     27 C                    -0.211463
     28 C                    -0.029931
     29 C                    -0.096184
     30 S                     0.001517
     31 C                    -0.158329
     32 C                     0.401271
     33 F                    -0.206906
     34 C                     0.443531
     35 O                    -0.460603
     36 O                    -0.300587
     37 C                    -0.058476
     38 H                     0.121548
     39 H                     0.095197
     40 H                     0.095153
     41 H                     0.216117
     42 H                     0.118000
     43 H                     0.115606
     44 H                     0.202566
  ----------------------------------------
  Sum of atomic charges =     0.000000

                    Cartesian Multipole Moments
 -----------------------------------------------------------------
    Charge (ESU x 10^10)
                -0.0000
    Dipole Moment (Debye)
         X      -0.0054      Y       2.0093      Z       2.8459
       Tot       3.4838
    Quadrupole Moments (Debye-Ang)
        XX    -190.2328     XY       5.9847     YY    -173.1222
        XZ     -11.3248     YZ     -11.0592     ZZ    -198.3602

 Total job time:  359.61s(wall), 11106.96s(cpu)
        *  Thank you very much for using Q-Chem.  Have a nice day.  *
