 Q-Chem 5.4, Q-Chem, Inc., Pleasanton, CA (2021)
 Q-Chem 5.4.0 for Intel X86 EM64T Linux

User input:
--------------------------------------------------------------
$molecule
0 1
C	0.041330	-8.517702	-0.318247
C	0.049453	-7.641575	0.757333
S	0.024919	-7.638634	-1.866383
C	0.049488	-6.264785	0.380867
H	0.055368	-7.966081	1.805573
C	0.051115	-6.072714	-1.045647
C	0.026203	-4.787049	-1.608077
C	0.026637	-5.162801	1.282948
C	-0.002586	-3.874817	0.720187
C	0.001903	-3.683952	-0.707853
O	0.054867	-5.499772	2.602386
O	-0.003348	-4.459055	-2.933517
C	0.602384	-5.329063	-3.881999
H	0.675079	-4.755694	-4.825744
H	-0.009592	-6.238095	-4.070972
H	1.621263	-5.637262	-3.562152
C	-0.381947	-4.572261	3.588253
H	-0.449872	-5.139743	4.535674
H	-1.381388	-4.153131	3.342986
H	0.341040	-3.739531	3.728239
C	-0.000348	-2.306654	-1.080725
S	0.010924	-2.306501	1.542694
C	0.000000	-1.435185	0.000000
H	-0.003612	-1.978138	-2.127635
C	0.000000	0.000000	0.000000
S	0.693394	0.581209	1.507541
C	1.897536	1.592607	0.718873
C	0.693330	0.580791	-1.067872
C	1.756758	1.476132	-0.686410
S	0.508573	0.422041	-2.805516
C	1.846879	1.552232	-3.054530
C	2.387897	2.009402	-1.862551
F	3.408741	2.872264	-1.819088
C	2.191300	1.838768	-4.456084
O	1.606694	1.337806	-5.406510
O	3.221062	2.712584	-4.569225
C	3.603677	3.026817	-5.916207
H	4.442623	3.739898	-5.833064
H	2.758956	3.483875	-6.470168
H	3.921969	2.114070	-6.459293
H	2.604650	2.187790	1.306486
H	-0.858809	-9.143623	-0.313367
H	0.937378	-9.149441	-0.325780
H	-1.079945	-1.443175	0.007439
$end

$rem
JOBTYPE		SP
EXCHANGE	HF
CORRELATION	pRIMP2
BASIS		cc-pvtz
METHOD		rimp2
AUX_BASIS	rimp2-cc-pvtz
SOLVENT_METHOD	PCM
PURECART	11111
SYMMETRY	false
MEM_TOTAL	110000
SCF_CONVERGENCE = 6
THRESH=10
GUI = 2
$end

$solvent
dielectric 4.90
$end
--------------------------------------------------------------

             Standard Nuclear Orientation (Angstroms)
    I     Atom           X                Y                Z
 ----------------------------------------------------------------
    1      C       0.0413300000    -8.5177020000    -0.3182470000
    2      C       0.0494530000    -7.6415750000     0.7573330000
    3      S       0.0249190000    -7.6386340000    -1.8663830000
    4      C       0.0494880000    -6.2647850000     0.3808670000
    5      H       0.0553680000    -7.9660810000     1.8055730000
    6      C       0.0511150000    -6.0727140000    -1.0456470000
    7      C       0.0262030000    -4.7870490000    -1.6080770000
    8      C       0.0266370000    -5.1628010000     1.2829480000
    9      C      -0.0025860000    -3.8748170000     0.7201870000
   10      C       0.0019030000    -3.6839520000    -0.7078530000
   11      O       0.0548670000    -5.4997720000     2.6023860000
   12      O      -0.0033480000    -4.4590550000    -2.9335170000
   13      C       0.6023840000    -5.3290630000    -3.8819990000
   14      H       0.6750790000    -4.7556940000    -4.8257440000
   15      H      -0.0095920000    -6.2380950000    -4.0709720000
   16      H       1.6212630000    -5.6372620000    -3.5621520000
   17      C      -0.3819470000    -4.5722610000     3.5882530000
   18      H      -0.4498720000    -5.1397430000     4.5356740000
   19      H      -1.3813880000    -4.1531310000     3.3429860000
   20      H       0.3410400000    -3.7395310000     3.7282390000
   21      C      -0.0003480000    -2.3066540000    -1.0807250000
   22      S       0.0109240000    -2.3065010000     1.5426940000
   23      C       0.0000000000    -1.4351850000     0.0000000000
   24      H      -0.0036120000    -1.9781380000    -2.1276350000
   25      C       0.0000000000     0.0000000000     0.0000000000
   26      S       0.6933940000     0.5812090000     1.5075410000
   27      C       1.8975360000     1.5926070000     0.7188730000
   28      C       0.6933300000     0.5807910000    -1.0678720000
   29      C       1.7567580000     1.4761320000    -0.6864100000
   30      S       0.5085730000     0.4220410000    -2.8055160000
   31      C       1.8468790000     1.5522320000    -3.0545300000
   32      C       2.3878970000     2.0094020000    -1.8625510000
   33      F       3.4087410000     2.8722640000    -1.8190880000
   34      C       2.1913000000     1.8387680000    -4.4560840000
   35      O       1.6066940000     1.3378060000    -5.4065100000
   36      O       3.2210620000     2.7125840000    -4.5692250000
   37      C       3.6036770000     3.0268170000    -5.9162070000
   38      H       4.4426230000     3.7398980000    -5.8330640000
   39      H       2.7589560000     3.4838750000    -6.4701680000
   40      H       3.9219690000     2.1140700000    -6.4592930000
   41      H       2.6046500000     2.1877900000     1.3064860000
   42      H      -0.8588090000    -9.1436230000    -0.3133670000
   43      H       0.9373780000    -9.1494410000    -0.3257800000
   44      H      -1.0799450000    -1.4431750000     0.0074390000
 ----------------------------------------------------------------

   11   -2755.2807654783      8.20e-07  Convergence criterion met
 Total energy in the final basis set =    -2755.2807654783
        RIMP2         total energy =     -2760.3870537531 a.u.

                    Orbital Energies (a.u.)
 --------------------------------------------------------------

 Alpha MOs
 -- Occupied --
-92.0124 -92.0062 -91.9790 -91.9553 -26.3456 -20.6159 -20.5860 -20.5855
-20.5624 -11.4109 -11.3859 -11.3221 -11.3099 -11.3081 -11.3044 -11.2991
-11.2897 -11.2874 -11.2842 -11.2839 -11.2821 -11.2815 -11.2743 -11.2731
-11.2683 -11.2560 -11.2523 -11.2469 -11.2304  -9.0120  -9.0062  -8.9812
 -8.9579  -6.6927  -6.6918  -6.6915  -6.6872  -6.6864  -6.6854  -6.6623
 -6.6614  -6.6602  -6.6391  -6.6382  -6.6372  -1.6626  -1.4685  -1.4090
 -1.4076  -1.3712  -1.2366  -1.2011  -1.1713  -1.1401  -1.0984  -1.0484
 -1.0447  -1.0269  -1.0020  -0.9958  -0.9649  -0.9598  -0.9472  -0.9407
 -0.8932  -0.8717  -0.8614  -0.8132  -0.7999  -0.7910  -0.7814  -0.7648
 -0.7581  -0.7367  -0.7274  -0.7141  -0.6978  -0.6916  -0.6857  -0.6811
 -0.6750  -0.6622  -0.6557  -0.6476  -0.6392  -0.6306  -0.6174  -0.6135
 -0.6115  -0.6015  -0.5918  -0.5792  -0.5699  -0.5662  -0.5576  -0.5558
 -0.5376  -0.5352  -0.5306  -0.5254  -0.5133  -0.5096  -0.5069  -0.4990
 -0.4871  -0.4814  -0.4770  -0.4744  -0.4694  -0.4631  -0.4543  -0.4444
 -0.4314  -0.3914  -0.3835  -0.3685  -0.3490  -0.3047  -0.2861  -0.2114

          Ground-State Mulliken Net Atomic Charges

     Atom                 Charge (a.u.)
  ----------------------------------------
      1 C                    -0.068820
      2 C                    -0.279521
      3 S                    -0.142653
      4 C                    -0.042765
      5 H                     0.190909
      6 C                    -0.056541
      7 C                     0.230818
      8 C                     0.223813
      9 C                    -0.072854
     10 C                    -0.059637
     11 O                    -0.334871
     12 O                    -0.344850
     13 C                    -0.083211
     14 H                     0.120715
     15 H                     0.092476
     16 H                     0.092490
     17 C                    -0.088467
     18 H                     0.124027
     19 H                     0.091892
     20 H                     0.088803
     21 C                    -0.240093
     22 S                    -0.101544
     23 C                     0.050874
     24 H                     0.200639
     25 C                    -0.111508
     26 S                     0.096123
     27 C                    -0.161353
     28 C                     0.023681
     29 C                    -0.106524
     30 S                     0.038880
     31 C                    -0.162581
     32 C                     0.403577
     33 F                    -0.204869
     34 C                     0.448439
     35 O                    -0.461890
     36 O                    -0.301043
     37 C                    -0.058302
     38 H                     0.121703
     39 H                     0.095246
     40 H                     0.095306
     41 H                     0.219551
     42 H                     0.114637
     43 H                     0.112278
     44 H                     0.207021
  ----------------------------------------
  Sum of atomic charges =     0.000000

                    Cartesian Multipole Moments
 -----------------------------------------------------------------
    Charge (ESU x 10^10)
                 0.0000
    Dipole Moment (Debye)
         X       2.1486      Y       3.5374      Z       2.7978
       Tot       4.9958
    Quadrupole Moments (Debye-Ang)
        XX    -189.7940     XY       8.4527     YY    -194.0387
        XZ     -11.2725     YZ      -8.5349     ZZ    -188.5961

 Total job time:  363.94s(wall), 10943.11s(cpu)
        *  Thank you very much for using Q-Chem.  Have a nice day.  *
