 Q-Chem 5.4, Q-Chem, Inc., Pleasanton, CA (2021)
 Q-Chem 5.4.0 for Intel X86 EM64T Linux

User input:
--------------------------------------------------------------
$molecule
0 1
C	0.296276	-8.517702	-0.123330
C	-0.631143	-7.641575	0.421494
S	1.628795	-7.638634	-0.911611
C	-0.305097	-6.264785	0.233291
H	-1.535988	-7.966081	0.950737
C	0.931114	-6.072714	-0.478557
C	1.405737	-4.787049	-0.781346
C	-1.097747	-5.162801	0.664542
C	-0.624993	-3.874817	0.357854
C	0.613970	-3.683952	-0.352278
O	-2.226300	-5.499772	1.348709
O	2.538827	-4.459055	-1.469658
C	3.663102	-5.329063	-1.419319
H	4.516756	-4.755694	-1.828237
H	3.520769	-6.238095	-2.043793
H	3.895546	-5.637262	-0.377021
C	-3.298492	-4.572261	1.463351
H	-4.152945	-5.139743	1.878237
H	-3.585804	-4.153131	0.475176
H	-3.058230	-3.739531	2.159469
C	0.935761	-2.306654	-0.540664
S	-1.330550	-2.306501	0.780808
C	-0.000000	-1.435185	-0.000000
H	1.840780	-1.978138	-1.066946
C	0.000000	0.000000	0.000000
S	0.157577	0.890937	1.507541
C	0.429889	2.439720	0.718873
C	0.157797	0.890576	-1.067872
C	0.396915	2.260004	-0.686410
S	0.118307	0.650207	-2.805516
C	0.417036	2.376229	-3.054530
C	0.537616	3.074202	-1.862551
F	0.764992	4.391378	-1.819088
C	0.496696	2.817118	-4.456084
O	0.370874	2.057582	-5.406510
O	0.723861	4.148418	-4.569225
C	0.814976	4.635075	-5.916207
H	0.999286	5.720591	-5.833064
H	-0.125909	4.442226	-6.470168
H	1.645504	4.140465	-6.459293
H	0.588993	3.350182	1.306486
H	-0.158021	-9.143623	-0.900433
H	0.750822	-9.149441	0.648903
H	-0.546415	-1.443175	-0.931540
$end

$rem
JOBTYPE		SP
EXCHANGE	HF
CORRELATION	pRIMP2
BASIS		cc-pvtz
METHOD		rimp2
AUX_BASIS	rimp2-cc-pvtz
SOLVENT_METHOD	PCM
PURECART	11111
SYMMETRY	false
MEM_TOTAL	110000
SCF_CONVERGENCE = 6
THRESH=10
GUI = 2
$end

$solvent
dielectric 4.90
$end
--------------------------------------------------------------

             Standard Nuclear Orientation (Angstroms)
    I     Atom           X                Y                Z
 ----------------------------------------------------------------
    1      C       0.2962760000    -8.5177020000    -0.1233300000
    2      C      -0.6311430000    -7.6415750000     0.4214940000
    3      S       1.6287950000    -7.6386340000    -0.9116110000
    4      C      -0.3050970000    -6.2647850000     0.2332910000
    5      H      -1.5359880000    -7.9660810000     0.9507370000
    6      C       0.9311140000    -6.0727140000    -0.4785570000
    7      C       1.4057370000    -4.7870490000    -0.7813460000
    8      C      -1.0977470000    -5.1628010000     0.6645420000
    9      C      -0.6249930000    -3.8748170000     0.3578540000
   10      C       0.6139700000    -3.6839520000    -0.3522780000
   11      O      -2.2263000000    -5.4997720000     1.3487090000
   12      O       2.5388270000    -4.4590550000    -1.4696580000
   13      C       3.6631020000    -5.3290630000    -1.4193190000
   14      H       4.5167560000    -4.7556940000    -1.8282370000
   15      H       3.5207690000    -6.2380950000    -2.0437930000
   16      H       3.8955460000    -5.6372620000    -0.3770210000
   17      C      -3.2984920000    -4.5722610000     1.4633510000
   18      H      -4.1529450000    -5.1397430000     1.8782370000
   19      H      -3.5858040000    -4.1531310000     0.4751760000
   20      H      -3.0582300000    -3.7395310000     2.1594690000
   21      C       0.9357610000    -2.3066540000    -0.5406640000
   22      S      -1.3305500000    -2.3065010000     0.7808080000
   23      C       0.0000000000    -1.4351850000     0.0000000000
   24      H       1.8407800000    -1.9781380000    -1.0669460000
   25      C       0.0000000000     0.0000000000     0.0000000000
   26      S       0.1575770000     0.8909370000     1.5075410000
   27      C       0.4298890000     2.4397200000     0.7188730000
   28      C       0.1577970000     0.8905760000    -1.0678720000
   29      C       0.3969150000     2.2600040000    -0.6864100000
   30      S       0.1183070000     0.6502070000    -2.8055160000
   31      C       0.4170360000     2.3762290000    -3.0545300000
   32      C       0.5376160000     3.0742020000    -1.8625510000
   33      F       0.7649920000     4.3913780000    -1.8190880000
   34      C       0.4966960000     2.8171180000    -4.4560840000
   35      O       0.3708740000     2.0575820000    -5.4065100000
   36      O       0.7238610000     4.1484180000    -4.5692250000
   37      C       0.8149760000     4.6350750000    -5.9162070000
   38      H       0.9992860000     5.7205910000    -5.8330640000
   39      H      -0.1259090000     4.4422260000    -6.4701680000
   40      H       1.6455040000     4.1404650000    -6.4592930000
   41      H       0.5889930000     3.3501820000     1.3064860000
   42      H      -0.1580210000    -9.1436230000    -0.9004330000
   43      H       0.7508220000    -9.1494410000     0.6489030000
   44      H      -0.5464150000    -1.4431750000    -0.9315400000
 ----------------------------------------------------------------

   11   -2755.3459457338      7.11e-07  Convergence criterion met
 Total energy in the final basis set =    -2755.3459457338
        RIMP2         total energy =     -2760.4346216491 a.u.

                    Orbital Energies (a.u.)
 --------------------------------------------------------------

 Alpha MOs
 -- Occupied --
-92.0122 -91.9999 -91.9788 -91.9582 -26.3443 -20.6154 -20.5872 -20.5871
-20.5619 -11.4101 -11.3838 -11.3094 -11.3091 -11.3077 -11.3036 -11.3019
-11.2988 -11.2892 -11.2855 -11.2847 -11.2833 -11.2827 -11.2813 -11.2729
-11.2725 -11.2583 -11.2580 -11.2497 -11.2370  -9.0110  -9.0000  -8.9809
 -8.9608  -6.6918  -6.6912  -6.6907  -6.6810  -6.6803  -6.6792  -6.6620
 -6.6612  -6.6599  -6.6420  -6.6411  -6.6401  -1.6613  -1.4678  -1.4106
 -1.4089  -1.3705  -1.2298  -1.2028  -1.1736  -1.1371  -1.1010  -1.0463
 -1.0462  -1.0235  -1.0037  -0.9975  -0.9624  -0.9593  -0.9487  -0.9413
 -0.8937  -0.8712  -0.8647  -0.8115  -0.7982  -0.7901  -0.7845  -0.7680
 -0.7586  -0.7359  -0.7261  -0.7098  -0.7007  -0.6953  -0.6853  -0.6801
 -0.6744  -0.6649  -0.6558  -0.6486  -0.6359  -0.6306  -0.6200  -0.6149
 -0.6120  -0.5991  -0.5926  -0.5778  -0.5710  -0.5657  -0.5583  -0.5536
 -0.5472  -0.5321  -0.5314  -0.5265  -0.5130  -0.5085  -0.5074  -0.5020
 -0.4852  -0.4816  -0.4763  -0.4745  -0.4691  -0.4688  -0.4613  -0.4466
 -0.4254  -0.3991  -0.3854  -0.3701  -0.3508  -0.3014  -0.2894  -0.2203

          Ground-State Mulliken Net Atomic Charges

     Atom                 Charge (a.u.)
  ----------------------------------------
      1 C                    -0.070333
      2 C                    -0.259306
      3 S                    -0.135101
      4 C                    -0.045578
      5 H                     0.193370
      6 C                    -0.052656
      7 C                     0.222017
      8 C                     0.229861
      9 C                    -0.081717
     10 C                    -0.049299
     11 O                    -0.334990
     12 O                    -0.342930
     13 C                    -0.082723
     14 H                     0.120263
     15 H                     0.092107
     16 H                     0.092604
     17 C                    -0.086588
     18 H                     0.123370
     19 H                     0.092794
     20 H                     0.090059
     21 C                    -0.260101
     22 S                    -0.072024
     23 C                     0.073198
     24 H                     0.210131
     25 C                    -0.074378
     26 S                     0.089846
     27 C                    -0.184938
     28 C                    -0.004802
     29 C                    -0.108249
     30 S                     0.005412
     31 C                    -0.156801
     32 C                     0.397538
     33 F                    -0.205994
     34 C                     0.445601
     35 O                    -0.460858
     36 O                    -0.300693
     37 C                    -0.058575
     38 H                     0.121518
     39 H                     0.095267
     40 H                     0.095187
     41 H                     0.217305
     42 H                     0.117464
     43 H                     0.115029
     44 H                     0.188694
  ----------------------------------------
  Sum of atomic charges =     0.000000

                    Cartesian Multipole Moments
 -----------------------------------------------------------------
    Charge (ESU x 10^10)
                -0.0000
    Dipole Moment (Debye)
         X       0.0760      Y       2.7378      Z       2.4988
       Tot       3.7075
    Quadrupole Moments (Debye-Ang)
        XX    -183.4840     XY       6.1192     YY    -174.7241
        XZ      -4.8027     YZ      -9.5632     ZZ    -205.7696

 Total job time:  348.81s(wall), 10989.94s(cpu)
        *  Thank you very much for using Q-Chem.  Have a nice day.  *
