 Q-Chem 5.4, Q-Chem, Inc., Pleasanton, CA (2021)
 Q-Chem 5.4.0 for Intel X86 EM64T Linux

User input:
--------------------------------------------------------------
$molecule
0 1
C	-0.236226	-8.517702	0.217225
C	0.448921	-7.641575	-0.611939
S	-1.218777	-7.638634	1.413715
C	0.206907	-6.264785	-0.323572
H	1.118185	-7.966081	-1.418739
C	-0.711285	-6.072714	0.768156
C	-1.053725	-4.787049	1.215016
C	0.804258	-5.162801	-0.999917
C	0.464908	-3.874817	-0.550033
C	-0.456457	-3.683952	0.541024
O	1.630752	-5.499772	-2.028811
O	-1.883064	-4.459055	2.249357
C	-2.956754	-5.329063	2.586579
H	-3.619069	-4.755694	3.262802
H	-2.609423	-6.238095	3.124711
H	-3.531667	-5.637262	1.686639
C	2.599073	-4.572261	-2.503251
H	3.260097	-5.139743	-3.185356
H	3.207034	-4.153131	-1.672937
H	2.135214	-3.739531	-3.075213
C	-0.694410	-2.306654	0.828107
S	0.983256	-2.306501	-1.188794
C	-0.000000	-1.435185	-0.000000
H	-1.364851	-1.978138	1.632185
C	0.000000	0.000000	0.000000
S	0.157577	0.890937	1.507541
C	0.429889	2.439720	0.718873
C	0.157797	0.890576	-1.067872
C	0.396915	2.260004	-0.686410
S	0.118307	0.650207	-2.805516
C	0.417036	2.376229	-3.054530
C	0.537616	3.074202	-1.862551
F	0.764992	4.391378	-1.819088
C	0.496696	2.817118	-4.456084
O	0.370874	2.057582	-5.406510
O	0.723861	4.148418	-4.569225
C	0.814976	4.635075	-5.916207
H	0.999286	5.720591	-5.833064
H	-0.125909	4.442226	-6.470168
H	1.645504	4.140465	-6.459293
H	0.588993	3.350182	1.306486
H	0.456457	-9.143623	0.792084
H	-0.927480	-9.149441	-0.352973
H	0.832067	-1.443175	0.688477
$end

$rem
JOBTYPE		SP
EXCHANGE	HF
CORRELATION	pRIMP2
BASIS		cc-pvtz
METHOD		rimp2
AUX_BASIS	rimp2-cc-pvtz
SOLVENT_METHOD	PCM
PURECART	11111
SYMMETRY	false
MEM_TOTAL	110000
SCF_CONVERGENCE = 6
THRESH=10
GUI = 2
$end

$solvent
dielectric 4.90
$end
--------------------------------------------------------------

             Standard Nuclear Orientation (Angstroms)
    I     Atom           X                Y                Z
 ----------------------------------------------------------------
    1      C      -0.2362260000    -8.5177020000     0.2172250000
    2      C       0.4489210000    -7.6415750000    -0.6119390000
    3      S      -1.2187770000    -7.6386340000     1.4137150000
    4      C       0.2069070000    -6.2647850000    -0.3235720000
    5      H       1.1181850000    -7.9660810000    -1.4187390000
    6      C      -0.7112850000    -6.0727140000     0.7681560000
    7      C      -1.0537250000    -4.7870490000     1.2150160000
    8      C       0.8042580000    -5.1628010000    -0.9999170000
    9      C       0.4649080000    -3.8748170000    -0.5500330000
   10      C      -0.4564570000    -3.6839520000     0.5410240000
   11      O       1.6307520000    -5.4997720000    -2.0288110000
   12      O      -1.8830640000    -4.4590550000     2.2493570000
   13      C      -2.9567540000    -5.3290630000     2.5865790000
   14      H      -3.6190690000    -4.7556940000     3.2628020000
   15      H      -2.6094230000    -6.2380950000     3.1247110000
   16      H      -3.5316670000    -5.6372620000     1.6866390000
   17      C       2.5990730000    -4.5722610000    -2.5032510000
   18      H       3.2600970000    -5.1397430000    -3.1853560000
   19      H       3.2070340000    -4.1531310000    -1.6729370000
   20      H       2.1352140000    -3.7395310000    -3.0752130000
   21      C      -0.6944100000    -2.3066540000     0.8281070000
   22      S       0.9832560000    -2.3065010000    -1.1887940000
   23      C       0.0000000000    -1.4351850000     0.0000000000
   24      H      -1.3648510000    -1.9781380000     1.6321850000
   25      C       0.0000000000     0.0000000000     0.0000000000
   26      S       0.1575770000     0.8909370000     1.5075410000
   27      C       0.4298890000     2.4397200000     0.7188730000
   28      C       0.1577970000     0.8905760000    -1.0678720000
   29      C       0.3969150000     2.2600040000    -0.6864100000
   30      S       0.1183070000     0.6502070000    -2.8055160000
   31      C       0.4170360000     2.3762290000    -3.0545300000
   32      C       0.5376160000     3.0742020000    -1.8625510000
   33      F       0.7649920000     4.3913780000    -1.8190880000
   34      C       0.4966960000     2.8171180000    -4.4560840000
   35      O       0.3708740000     2.0575820000    -5.4065100000
   36      O       0.7238610000     4.1484180000    -4.5692250000
   37      C       0.8149760000     4.6350750000    -5.9162070000
   38      H       0.9992860000     5.7205910000    -5.8330640000
   39      H      -0.1259090000     4.4422260000    -6.4701680000
   40      H       1.6455040000     4.1404650000    -6.4592930000
   41      H       0.5889930000     3.3501820000     1.3064860000
   42      H       0.4564570000    -9.1436230000     0.7920840000
   43      H      -0.9274800000    -9.1494410000    -0.3529730000
   44      H       0.8320670000    -1.4431750000     0.6884770000
 ----------------------------------------------------------------

   11   -2755.3432264401      8.30e-07  Convergence criterion met
 Total energy in the final basis set =    -2755.3432264401
        RIMP2         total energy =     -2760.4319279359 a.u.

                    Orbital Energies (a.u.)
 --------------------------------------------------------------

 Alpha MOs
 -- Occupied --
-92.0143 -91.9950 -91.9799 -91.9590 -26.3424 -20.6146 -20.5878 -20.5876
-20.5611 -11.4090 -11.3811 -11.3096 -11.3090 -11.3071 -11.3060 -11.2972
-11.2946 -11.2887 -11.2845 -11.2844 -11.2838 -11.2833 -11.2821 -11.2739
-11.2724 -11.2593 -11.2589 -11.2504 -11.2385  -9.0132  -8.9952  -8.9820
 -8.9616  -6.6940  -6.6934  -6.6928  -6.6762  -6.6755  -6.6743  -6.6631
 -6.6622  -6.6609  -6.6428  -6.6419  -6.6408  -1.6596  -1.4670  -1.4110
 -1.4095  -1.3697  -1.2296  -1.2027  -1.1746  -1.1373  -1.1004  -1.0475
 -1.0438  -1.0242  -1.0043  -0.9975  -0.9632  -0.9575  -0.9490  -0.9413
 -0.8942  -0.8681  -0.8664  -0.8148  -0.7942  -0.7898  -0.7848  -0.7691
 -0.7563  -0.7378  -0.7245  -0.7147  -0.6971  -0.6886  -0.6844  -0.6805
 -0.6736  -0.6622  -0.6564  -0.6491  -0.6375  -0.6304  -0.6207  -0.6156
 -0.6109  -0.5991  -0.5927  -0.5768  -0.5712  -0.5644  -0.5590  -0.5585
 -0.5494  -0.5331  -0.5311  -0.5254  -0.5134  -0.5102  -0.5078  -0.5018
 -0.4849  -0.4792  -0.4764  -0.4735  -0.4693  -0.4678  -0.4608  -0.4476
 -0.4295  -0.3956  -0.3864  -0.3707  -0.3516  -0.2977  -0.2894  -0.2194

          Ground-State Mulliken Net Atomic Charges

     Atom                 Charge (a.u.)
  ----------------------------------------
      1 C                    -0.070291
      2 C                    -0.255272
      3 S                    -0.134521
      4 C                    -0.048106
      5 H                     0.194167
      6 C                    -0.049082
      7 C                     0.219264
      8 C                     0.228578
      9 C                    -0.072924
     10 C                    -0.019146
     11 O                    -0.334479
     12 O                    -0.343635
     13 C                    -0.082808
     14 H                     0.119999
     15 H                     0.092145
     16 H                     0.093253
     17 C                    -0.088312
     18 H                     0.124050
     19 H                     0.092472
     20 H                     0.091900
     21 C                    -0.319559
     22 S                    -0.088806
     23 C                     0.139865
     24 H                     0.201644
     25 C                    -0.049185
     26 S                     0.085221
     27 C                    -0.199887
     28 C                    -0.050034
     29 C                    -0.101395
     30 S                     0.004317
     31 C                    -0.157956
     32 C                     0.402225
     33 F                    -0.208063
     34 C                     0.443061
     35 O                    -0.460113
     36 O                    -0.300556
     37 C                    -0.058720
     38 H                     0.121307
     39 H                     0.095209
     40 H                     0.095023
     41 H                     0.217222
     42 H                     0.117899
     43 H                     0.115788
     44 H                     0.198242
  ----------------------------------------
  Sum of atomic charges =     0.000000

                    Cartesian Multipole Moments
 -----------------------------------------------------------------
    Charge (ESU x 10^10)
                -0.0000
    Dipole Moment (Debye)
         X       1.0639      Y       2.1015      Z       3.2333
       Tot       4.0003
    Quadrupole Moments (Debye-Ang)
        XX    -187.7471     XY      -0.0332     YY    -172.8451
        XZ      -9.5971     YZ      -4.1377     ZZ    -201.5600

 Total job time:  373.45s(wall), 11165.73s(cpu)
        *  Thank you very much for using Q-Chem.  Have a nice day.  *
