 Q-Chem 5.4, Q-Chem, Inc., Pleasanton, CA (2021)
 Q-Chem 5.4.0 for Intel X86 EM64T Linux

User input:
--------------------------------------------------------------
$molecule
0 1
C	0.284919	-8.517702	0.147685
C	-0.728574	-7.641575	-0.212552
S	1.745304	-7.638634	0.661757
C	-0.374824	-6.264785	-0.083761
H	-1.715621	-7.966081	-0.565513
C	0.965104	-6.072714	0.405665
C	1.502136	-4.787049	0.574617
C	-1.214687	-5.162801	-0.413763
C	-0.675870	-3.874817	-0.248748
C	0.664513	-3.683952	0.243888
O	-2.464209	-5.499772	-0.838511
O	2.757750	-4.459055	1.000176
C	3.441858	-5.329063	1.893778
H	4.303826	-4.755694	2.284868
H	3.828743	-6.238095	1.383341
H	2.792824	-5.637262	2.741817
C	-3.241222	-4.572261	-1.586168
H	-4.108274	-5.139743	-1.974033
H	-2.668916	-4.153131	-2.441448
H	-3.620041	-3.739531	-0.954660
C	1.015668	-2.306654	0.369302
S	-1.453394	-2.306501	-0.517367
C	-0.000000	-1.435185	-0.000000
H	2.000559	-1.978138	0.724300
C	0.000000	0.000000	0.000000
S	0.581934	0.692785	1.507541
C	1.592155	1.897915	0.718873
C	0.581944	0.692363	-1.067872
C	1.473741	1.758764	-0.686410
S	0.427560	0.503942	-2.805516
C	1.549278	1.849357	-3.054530
C	2.002690	2.393529	-1.862551
F	2.858191	3.420549	-1.819088
C	1.838710	2.191348	-4.456084
O	1.349977	1.596481	-5.406510
O	2.701091	3.230705	-4.569225
C	3.023327	3.606605	-5.916207
H	3.725703	4.454534	-5.833064
H	2.112072	3.910035	-6.470168
H	3.495281	2.762996	-6.459293
H	2.185174	2.606846	1.306486
H	0.588198	-9.143623	-0.699838
H	-0.014470	-9.149441	0.992270
H	0.362373	-1.443175	-1.017360
$end

$rem
JOBTYPE		SP
EXCHANGE	HF
CORRELATION	pRIMP2
BASIS		cc-pvtz
METHOD		rimp2
AUX_BASIS	rimp2-cc-pvtz
SOLVENT_METHOD	PCM
PURECART	11111
SYMMETRY	false
MEM_TOTAL	110000
SCF_CONVERGENCE = 6
THRESH=10
GUI = 2
$end

$solvent
dielectric 4.90
$end
--------------------------------------------------------------

             Standard Nuclear Orientation (Angstroms)
    I     Atom           X                Y                Z
 ----------------------------------------------------------------
    1      C       0.2849190000    -8.5177020000     0.1476850000
    2      C      -0.7285740000    -7.6415750000    -0.2125520000
    3      S       1.7453040000    -7.6386340000     0.6617570000
    4      C      -0.3748240000    -6.2647850000    -0.0837610000
    5      H      -1.7156210000    -7.9660810000    -0.5655130000
    6      C       0.9651040000    -6.0727140000     0.4056650000
    7      C       1.5021360000    -4.7870490000     0.5746170000
    8      C      -1.2146870000    -5.1628010000    -0.4137630000
    9      C      -0.6758700000    -3.8748170000    -0.2487480000
   10      C       0.6645130000    -3.6839520000     0.2438880000
   11      O      -2.4642090000    -5.4997720000    -0.8385110000
   12      O       2.7577500000    -4.4590550000     1.0001760000
   13      C       3.4418580000    -5.3290630000     1.8937780000
   14      H       4.3038260000    -4.7556940000     2.2848680000
   15      H       3.8287430000    -6.2380950000     1.3833410000
   16      H       2.7928240000    -5.6372620000     2.7418170000
   17      C      -3.2412220000    -4.5722610000    -1.5861680000
   18      H      -4.1082740000    -5.1397430000    -1.9740330000
   19      H      -2.6689160000    -4.1531310000    -2.4414480000
   20      H      -3.6200410000    -3.7395310000    -0.9546600000
   21      C       1.0156680000    -2.3066540000     0.3693020000
   22      S      -1.4533940000    -2.3065010000    -0.5173670000
   23      C       0.0000000000    -1.4351850000     0.0000000000
   24      H       2.0005590000    -1.9781380000     0.7243000000
   25      C       0.0000000000     0.0000000000     0.0000000000
   26      S       0.5819340000     0.6927850000     1.5075410000
   27      C       1.5921550000     1.8979150000     0.7188730000
   28      C       0.5819440000     0.6923630000    -1.0678720000
   29      C       1.4737410000     1.7587640000    -0.6864100000
   30      S       0.4275600000     0.5039420000    -2.8055160000
   31      C       1.5492780000     1.8493570000    -3.0545300000
   32      C       2.0026900000     2.3935290000    -1.8625510000
   33      F       2.8581910000     3.4205490000    -1.8190880000
   34      C       1.8387100000     2.1913480000    -4.4560840000
   35      O       1.3499770000     1.5964810000    -5.4065100000
   36      O       2.7010910000     3.2307050000    -4.5692250000
   37      C       3.0233270000     3.6066050000    -5.9162070000
   38      H       3.7257030000     4.4545340000    -5.8330640000
   39      H       2.1120720000     3.9100350000    -6.4701680000
   40      H       3.4952810000     2.7629960000    -6.4592930000
   41      H       2.1851740000     2.6068460000     1.3064860000
   42      H       0.5881980000    -9.1436230000    -0.6998380000
   43      H      -0.0144700000    -9.1494410000     0.9922700000
   44      H       0.3623730000    -1.4431750000    -1.0173600000
 ----------------------------------------------------------------

   11   -2755.3160798950      7.03e-07  Convergence criterion met
 Total energy in the final basis set =    -2755.3160798950
        RIMP2         total energy =     -2760.4120168007 a.u.

                    Orbital Energies (a.u.)
 --------------------------------------------------------------

 Alpha MOs
 -- Occupied --
-92.0131 -92.0063 -91.9706 -91.9572 -26.3463 -20.6160 -20.5868 -20.5846
-20.5624 -11.4110 -11.3868 -11.3214 -11.3101 -11.3082 -11.3036 -11.2996
-11.2897 -11.2893 -11.2873 -11.2827 -11.2826 -11.2804 -11.2753 -11.2716
-11.2714 -11.2567 -11.2559 -11.2485 -11.2340  -9.0121  -9.0062  -8.9731
 -8.9598  -6.6928  -6.6921  -6.6918  -6.6872  -6.6865  -6.6854  -6.6542
 -6.6533  -6.6520  -6.6410  -6.6401  -6.6391  -1.6632  -1.4685  -1.4091
 -1.4076  -1.3712  -1.2353  -1.2005  -1.1722  -1.1394  -1.0997  -1.0489
 -1.0439  -1.0258  -1.0013  -0.9952  -0.9648  -0.9573  -0.9482  -0.9417
 -0.8913  -0.8723  -0.8616  -0.8172  -0.7954  -0.7893  -0.7829  -0.7669
 -0.7595  -0.7342  -0.7279  -0.7121  -0.7014  -0.6934  -0.6860  -0.6792
 -0.6751  -0.6666  -0.6543  -0.6475  -0.6353  -0.6292  -0.6189  -0.6146
 -0.6101  -0.6008  -0.5932  -0.5751  -0.5716  -0.5636  -0.5563  -0.5539
 -0.5525  -0.5321  -0.5263  -0.5219  -0.5123  -0.5104  -0.5064  -0.4998
 -0.4853  -0.4833  -0.4758  -0.4746  -0.4707  -0.4669  -0.4576  -0.4443
 -0.4230  -0.3974  -0.3824  -0.3689  -0.3499  -0.3078  -0.2872  -0.2179

          Ground-State Mulliken Net Atomic Charges

     Atom                 Charge (a.u.)
  ----------------------------------------
      1 C                    -0.069749
      2 C                    -0.267918
      3 S                    -0.137676
      4 C                    -0.041817
      5 H                     0.192476
      6 C                    -0.052951
      7 C                     0.224058
      8 C                     0.220635
      9 C                    -0.072488
     10 C                    -0.049307
     11 O                    -0.336235
     12 O                    -0.344032
     13 C                    -0.082557
     14 H                     0.119408
     15 H                     0.092106
     16 H                     0.092683
     17 C                    -0.086263
     18 H                     0.122172
     19 H                     0.091971
     20 H                     0.090000
     21 C                    -0.266327
     22 S                    -0.088047
     23 C                     0.045658
     24 H                     0.208397
     25 C                    -0.096047
     26 S                     0.092157
     27 C                    -0.159574
     28 C                     0.014648
     29 C                    -0.092069
     30 S                     0.025043
     31 C                    -0.154142
     32 C                     0.392957
     33 F                    -0.204038
     34 C                     0.446981
     35 O                    -0.461200
     36 O                    -0.301199
     37 C                    -0.058250
     38 H                     0.121606
     39 H                     0.095371
     40 H                     0.095361
     41 H                     0.218538
     42 H                     0.116425
     43 H                     0.113839
     44 H                     0.189396
  ----------------------------------------
  Sum of atomic charges =     0.000000

                    Cartesian Multipole Moments
 -----------------------------------------------------------------
    Charge (ESU x 10^10)
                 0.0000
    Dipole Moment (Debye)
         X       2.4493      Y       3.4561      Z       2.2103
       Tot       4.7779
    Quadrupole Moments (Debye-Ang)
        XX    -184.1585     XY      11.4218     YY    -185.2977
        XZ       4.0418     YZ      -4.9514     ZZ    -197.9526

 Total job time:  381.56s(wall), 11320.93s(cpu)
        *  Thank you very much for using Q-Chem.  Have a nice day.  *
