 Q-Chem 5.4, Q-Chem, Inc., Pleasanton, CA (2021)
 Q-Chem 5.4.0 for Intel X86 EM64T Linux

User input:
--------------------------------------------------------------
$molecule
0 1
C	0.217225	-8.517702	0.236226
C	-0.611939	-7.641575	-0.448921
S	1.413715	-7.638634	1.218777
C	-0.323572	-6.264785	-0.206907
H	-1.418739	-7.966081	-1.118185
C	0.768156	-6.072714	0.711285
C	1.215016	-4.787049	1.053725
C	-0.999917	-5.162801	-0.804258
C	-0.550033	-3.874817	-0.464908
C	0.541024	-3.683952	0.456457
O	-2.028811	-5.499772	-1.630752
O	2.249357	-4.459055	1.883064
C	2.586579	-5.329063	2.956754
H	3.262802	-4.755694	3.619069
H	3.124711	-6.238095	2.609423
H	1.686639	-5.637262	3.531667
C	-2.503251	-4.572261	-2.599073
H	-3.185356	-5.139743	-3.260097
H	-1.672937	-4.153131	-3.207034
H	-3.075213	-3.739531	-2.135214
C	0.828107	-2.306654	0.694410
S	-1.188794	-2.306501	-0.983256
C	-0.000000	-1.435185	-0.000000
H	1.632185	-1.978138	1.364851
C	0.000000	0.000000	0.000000
S	0.783786	0.451972	1.507541
C	2.145261	1.238908	0.718873
C	0.783650	0.451572	-1.067872
C	1.986396	1.148648	-0.686410
S	0.574133	0.327317	-2.805516
C	2.088363	1.207943	-3.054530
C	2.700548	1.564221	-1.862551
F	3.855718	2.236706	-1.819088
C	2.477307	1.430318	-4.456084
O	1.814592	1.038482	-5.406510
O	3.643162	2.112042	-4.569225
C	4.074530	2.355061	-5.916207
H	5.024556	2.911627	-5.833064
H	3.322010	2.951860	-6.470168
H	4.229490	1.400910	-6.459293
H	2.944986	1.702260	1.306486
H	0.792084	-9.143623	-0.456457
H	-0.352973	-9.149441	0.927480
H	0.688477	-1.443175	-0.832067
$end

$rem
JOBTYPE		SP
EXCHANGE	HF
CORRELATION	pRIMP2
BASIS		cc-pvtz
METHOD		rimp2
AUX_BASIS	rimp2-cc-pvtz
SOLVENT_METHOD	PCM
PURECART	11111
SYMMETRY	false
MEM_TOTAL	110000
SCF_CONVERGENCE = 6
THRESH=10
GUI = 2
$end

$solvent
dielectric 4.90
$end
--------------------------------------------------------------

             Standard Nuclear Orientation (Angstroms)
    I     Atom           X                Y                Z
 ----------------------------------------------------------------
    1      C       0.2172250000    -8.5177020000     0.2362260000
    2      C      -0.6119390000    -7.6415750000    -0.4489210000
    3      S       1.4137150000    -7.6386340000     1.2187770000
    4      C      -0.3235720000    -6.2647850000    -0.2069070000
    5      H      -1.4187390000    -7.9660810000    -1.1181850000
    6      C       0.7681560000    -6.0727140000     0.7112850000
    7      C       1.2150160000    -4.7870490000     1.0537250000
    8      C      -0.9999170000    -5.1628010000    -0.8042580000
    9      C      -0.5500330000    -3.8748170000    -0.4649080000
   10      C       0.5410240000    -3.6839520000     0.4564570000
   11      O      -2.0288110000    -5.4997720000    -1.6307520000
   12      O       2.2493570000    -4.4590550000     1.8830640000
   13      C       2.5865790000    -5.3290630000     2.9567540000
   14      H       3.2628020000    -4.7556940000     3.6190690000
   15      H       3.1247110000    -6.2380950000     2.6094230000
   16      H       1.6866390000    -5.6372620000     3.5316670000
   17      C      -2.5032510000    -4.5722610000    -2.5990730000
   18      H      -3.1853560000    -5.1397430000    -3.2600970000
   19      H      -1.6729370000    -4.1531310000    -3.2070340000
   20      H      -3.0752130000    -3.7395310000    -2.1352140000
   21      C       0.8281070000    -2.3066540000     0.6944100000
   22      S      -1.1887940000    -2.3065010000    -0.9832560000
   23      C       0.0000000000    -1.4351850000     0.0000000000
   24      H       1.6321850000    -1.9781380000     1.3648510000
   25      C       0.0000000000     0.0000000000     0.0000000000
   26      S       0.7837860000     0.4519720000     1.5075410000
   27      C       2.1452610000     1.2389080000     0.7188730000
   28      C       0.7836500000     0.4515720000    -1.0678720000
   29      C       1.9863960000     1.1486480000    -0.6864100000
   30      S       0.5741330000     0.3273170000    -2.8055160000
   31      C       2.0883630000     1.2079430000    -3.0545300000
   32      C       2.7005480000     1.5642210000    -1.8625510000
   33      F       3.8557180000     2.2367060000    -1.8190880000
   34      C       2.4773070000     1.4303180000    -4.4560840000
   35      O       1.8145920000     1.0384820000    -5.4065100000
   36      O       3.6431620000     2.1120420000    -4.5692250000
   37      C       4.0745300000     2.3550610000    -5.9162070000
   38      H       5.0245560000     2.9116270000    -5.8330640000
   39      H       3.3220100000     2.9518600000    -6.4701680000
   40      H       4.2294900000     1.4009100000    -6.4592930000
   41      H       2.9449860000     1.7022600000     1.3064860000
   42      H       0.7920840000    -9.1436230000    -0.4564570000
   43      H      -0.3529730000    -9.1494410000     0.9274800000
   44      H       0.6884770000    -1.4431750000    -0.8320670000
 ----------------------------------------------------------------

   11   -2755.2625036695      8.79e-07  Convergence criterion met
 Total energy in the final basis set =    -2755.2625036695
        RIMP2         total energy =     -2760.3709157091 a.u.

                    Orbital Energies (a.u.)
 --------------------------------------------------------------

 Alpha MOs
 -- Occupied --
-92.0167 -92.0141 -91.9689 -91.9550 -26.3482 -20.6167 -20.5864 -20.5827
-20.5631 -11.4120 -11.3895 -11.3347 -11.3200 -11.3075 -11.3005 -11.3004
-11.2905 -11.2901 -11.2824 -11.2815 -11.2793 -11.2744 -11.2733 -11.2718
-11.2681 -11.2547 -11.2508 -11.2462 -11.2286  -9.0160  -9.0136  -8.9716
 -8.9577  -6.6966  -6.6958  -6.6956  -6.6945  -6.6937  -6.6927  -6.6527
 -6.6518  -6.6506  -6.6389  -6.6380  -6.6370  -1.6651  -1.4692  -1.4085
 -1.4058  -1.3720  -1.2475  -1.1995  -1.1713  -1.1426  -1.0995  -1.0520
 -1.0425  -1.0298  -1.0003  -0.9939  -0.9683  -0.9567  -0.9481  -0.9413
 -0.8902  -0.8756  -0.8566  -0.8220  -0.7974  -0.7869  -0.7813  -0.7660
 -0.7594  -0.7345  -0.7298  -0.7149  -0.7037  -0.6921  -0.6868  -0.6801
 -0.6758  -0.6700  -0.6534  -0.6466  -0.6370  -0.6302  -0.6168  -0.6150
 -0.6092  -0.6040  -0.5928  -0.5793  -0.5697  -0.5619  -0.5584  -0.5547
 -0.5477  -0.5329  -0.5275  -0.5197  -0.5142  -0.5098  -0.5059  -0.4972
 -0.4864  -0.4848  -0.4771  -0.4743  -0.4703  -0.4626  -0.4551  -0.4425
 -0.4262  -0.3965  -0.3768  -0.3690  -0.3460  -0.3142  -0.2851  -0.2120

          Ground-State Mulliken Net Atomic Charges

     Atom                 Charge (a.u.)
  ----------------------------------------
      1 C                    -0.068420
      2 C                    -0.283792
      3 S                    -0.144203
      4 C                    -0.037308
      5 H                     0.190565
      6 C                    -0.054850
      7 C                     0.224763
      8 C                     0.213982
      9 C                    -0.061032
     10 C                    -0.068824
     11 O                    -0.336521
     12 O                    -0.345118
     13 C                    -0.082613
     14 H                     0.118727
     15 H                     0.092325
     16 H                     0.092855
     17 C                    -0.087133
     18 H                     0.121838
     19 H                     0.091316
     20 H                     0.089901
     21 C                    -0.251922
     22 S                    -0.104907
     23 C                     0.061536
     24 H                     0.202917
     25 C                    -0.169098
     26 S                     0.108408
     27 C                    -0.136985
     28 C                     0.057617
     29 C                    -0.115290
     30 S                     0.062291
     31 C                    -0.153262
     32 C                     0.399998
     33 F                    -0.203210
     34 C                     0.448273
     35 O                    -0.461865
     36 O                    -0.301329
     37 C                    -0.058067
     38 H                     0.121772
     39 H                     0.095456
     40 H                     0.095565
     41 H                     0.222706
     42 H                     0.114174
     43 H                     0.111762
     44 H                     0.187002
  ----------------------------------------
  Sum of atomic charges =     0.000000

                    Cartesian Multipole Moments
 -----------------------------------------------------------------
    Charge (ESU x 10^10)
                 0.0000
    Dipole Moment (Debye)
         X       4.1181      Y       3.9894      Z       2.1586
       Tot       6.1265
    Quadrupole Moments (Debye-Ang)
        XX    -183.8686     XY      10.3522     YY    -199.7084
        XZ       1.3742     YZ      -2.1120     ZZ    -190.2201

 Total job time:  327.48s(wall), 10702.47s(cpu)
        *  Thank you very much for using Q-Chem.  Have a nice day.  *
