 Q-Chem 5.4, Q-Chem, Inc., Pleasanton, CA (2021)
 Q-Chem 5.4.0 for Intel X86 EM64T Linux

User input:
--------------------------------------------------------------
$molecule
0 1
C	-0.313191	-8.517702	0.070009
C	0.694746	-7.641575	-0.305494
S	-1.762350	-7.638634	0.614924
C	0.340973	-6.264785	-0.176768
H	1.677747	-7.966081	-0.669571
C	-1.000069	-6.072714	0.309600
C	-1.520060	-4.787049	0.525372
C	1.196466	-5.162801	-0.463825
C	0.677639	-3.874817	-0.243888
C	-0.665815	-3.683952	0.240312
O	2.426678	-5.499772	-0.941626
O	-2.755460	-4.459055	1.006468
C	-3.853913	-5.329063	0.761666
H	-4.765607	-4.755694	1.016135
H	-3.822182	-6.238095	1.401368
H	-3.901833	-5.637262	-0.305161
C	3.502489	-4.572261	-0.868342
H	4.416005	-5.139743	-1.128551
H	3.613841	-4.153131	0.154712
H	3.386756	-3.739531	-1.595605
C	-1.015430	-2.306654	0.369957
S	1.445922	-2.306501	-0.537898
C	-0.000000	-1.435185	-0.000000
H	-1.998088	-1.978138	0.731088
C	0.000000	0.000000	0.000000
S	0.382799	0.819795	1.507541
C	1.046687	2.245325	0.718873
C	0.382918	0.819389	-1.067872
C	0.968323	2.080267	-0.686410
S	0.282561	0.597432	-2.805516
C	1.017839	2.187324	-3.054530
C	1.314960	2.830306	-1.862551
F	1.875498	4.043751	-1.819088
C	1.208895	2.592573	-4.456084
O	0.890778	1.891482	-5.406510
O	1.772886	3.819715	-4.569225
C	1.986852	4.266207	-5.916207
H	2.445834	5.267032	-5.833064
H	1.028114	4.323448	-6.470168
H	2.661066	3.573494	-6.459293
H	1.436015	3.083584	1.306486
H	-0.000738	-9.143623	0.914194
H	-0.626735	-9.149441	-0.769424
H	0.376353	-1.443175	1.012272
$end

$rem
JOBTYPE		SP
EXCHANGE	HF
CORRELATION	pRIMP2
BASIS		cc-pvtz
METHOD		rimp2
AUX_BASIS	rimp2-cc-pvtz
SOLVENT_METHOD	PCM
PURECART	11111
SYMMETRY	false
MEM_TOTAL	110000
SCF_CONVERGENCE = 6
THRESH=10
GUI = 2
$end

$solvent
dielectric 4.90
$end
--------------------------------------------------------------

             Standard Nuclear Orientation (Angstroms)
    I     Atom           X                Y                Z
 ----------------------------------------------------------------
    1      C      -0.3131910000    -8.5177020000     0.0700090000
    2      C       0.6947460000    -7.6415750000    -0.3054940000
    3      S      -1.7623500000    -7.6386340000     0.6149240000
    4      C       0.3409730000    -6.2647850000    -0.1767680000
    5      H       1.6777470000    -7.9660810000    -0.6695710000
    6      C      -1.0000690000    -6.0727140000     0.3096000000
    7      C      -1.5200600000    -4.7870490000     0.5253720000
    8      C       1.1964660000    -5.1628010000    -0.4638250000
    9      C       0.6776390000    -3.8748170000    -0.2438880000
   10      C      -0.6658150000    -3.6839520000     0.2403120000
   11      O       2.4266780000    -5.4997720000    -0.9416260000
   12      O      -2.7554600000    -4.4590550000     1.0064680000
   13      C      -3.8539130000    -5.3290630000     0.7616660000
   14      H      -4.7656070000    -4.7556940000     1.0161350000
   15      H      -3.8221820000    -6.2380950000     1.4013680000
   16      H      -3.9018330000    -5.6372620000    -0.3051610000
   17      C       3.5024890000    -4.5722610000    -0.8683420000
   18      H       4.4160050000    -5.1397430000    -1.1285510000
   19      H       3.6138410000    -4.1531310000     0.1547120000
   20      H       3.3867560000    -3.7395310000    -1.5956050000
   21      C      -1.0154300000    -2.3066540000     0.3699570000
   22      S       1.4459220000    -2.3065010000    -0.5378980000
   23      C       0.0000000000    -1.4351850000     0.0000000000
   24      H      -1.9980880000    -1.9781380000     0.7310880000
   25      C       0.0000000000     0.0000000000     0.0000000000
   26      S       0.3827990000     0.8197950000     1.5075410000
   27      C       1.0466870000     2.2453250000     0.7188730000
   28      C       0.3829180000     0.8193890000    -1.0678720000
   29      C       0.9683230000     2.0802670000    -0.6864100000
   30      S       0.2825610000     0.5974320000    -2.8055160000
   31      C       1.0178390000     2.1873240000    -3.0545300000
   32      C       1.3149600000     2.8303060000    -1.8625510000
   33      F       1.8754980000     4.0437510000    -1.8190880000
   34      C       1.2088950000     2.5925730000    -4.4560840000
   35      O       0.8907780000     1.8914820000    -5.4065100000
   36      O       1.7728860000     3.8197150000    -4.5692250000
   37      C       1.9868520000     4.2662070000    -5.9162070000
   38      H       2.4458340000     5.2670320000    -5.8330640000
   39      H       1.0281140000     4.3234480000    -6.4701680000
   40      H       2.6610660000     3.5734940000    -6.4592930000
   41      H       1.4360150000     3.0835840000     1.3064860000
   42      H      -0.0007380000    -9.1436230000     0.9141940000
   43      H      -0.6267350000    -9.1494410000    -0.7694240000
   44      H       0.3763530000    -1.4431750000     1.0122720000
 ----------------------------------------------------------------

   11   -2755.3331256578      7.55e-07  Convergence criterion met
 Total energy in the final basis set =    -2755.3331256578
        RIMP2         total energy =     -2760.4228240307 a.u.

                    Orbital Energies (a.u.)
 --------------------------------------------------------------

 Alpha MOs
 -- Occupied --
-92.0157 -91.9993 -91.9769 -91.9570 -26.3439 -20.6150 -20.5868 -20.5859
-20.5615 -11.4096 -11.3832 -11.3152 -11.3084 -11.3056 -11.3019 -11.2980
-11.2963 -11.2890 -11.2856 -11.2838 -11.2825 -11.2821 -11.2777 -11.2711
-11.2711 -11.2572 -11.2549 -11.2486 -11.2344  -9.0147  -8.9993  -8.9791
 -8.9597  -6.6955  -6.6948  -6.6943  -6.6803  -6.6796  -6.6785  -6.6602
 -6.6593  -6.6580  -6.6409  -6.6400  -6.6389  -1.6610  -1.4675  -1.4095
 -1.4084  -1.3702  -1.2308  -1.2018  -1.1726  -1.1384  -1.0987  -1.0462
 -1.0438  -1.0255  -1.0029  -0.9956  -0.9637  -0.9580  -0.9478  -0.9406
 -0.8926  -0.8691  -0.8648  -0.8157  -0.7961  -0.7888  -0.7837  -0.7672
 -0.7567  -0.7377  -0.7259  -0.7168  -0.6964  -0.6870  -0.6847  -0.6792
 -0.6741  -0.6608  -0.6555  -0.6480  -0.6347  -0.6296  -0.6189  -0.6146
 -0.6109  -0.5996  -0.5914  -0.5757  -0.5720  -0.5629  -0.5596  -0.5558
 -0.5456  -0.5330  -0.5313  -0.5239  -0.5122  -0.5084  -0.5068  -0.5006
 -0.4854  -0.4816  -0.4759  -0.4740  -0.4688  -0.4683  -0.4601  -0.4459
 -0.4238  -0.3986  -0.3841  -0.3690  -0.3517  -0.3019  -0.2887  -0.2189

          Ground-State Mulliken Net Atomic Charges

     Atom                 Charge (a.u.)
  ----------------------------------------
      1 C                    -0.069727
      2 C                    -0.266940
      3 S                    -0.138567
      4 C                    -0.042733
      5 H                     0.192482
      6 C                    -0.052988
      7 C                     0.222804
      8 C                     0.221514
      9 C                    -0.071426
     10 C                    -0.042266
     11 O                    -0.335156
     12 O                    -0.343446
     13 C                    -0.082662
     14 H                     0.119678
     15 H                     0.092010
     16 H                     0.093113
     17 C                    -0.087086
     18 H                     0.123137
     19 H                     0.091495
     20 H                     0.090850
     21 C                    -0.270943
     22 S                    -0.071762
     23 C                     0.052689
     24 H                     0.203889
     25 C                    -0.036682
     26 S                     0.090655
     27 C                    -0.180571
     28 C                    -0.053856
     29 C                    -0.079715
     30 S                     0.023444
     31 C                    -0.154672
     32 C                     0.393802
     33 F                    -0.206469
     34 C                     0.445731
     35 O                    -0.460470
     36 O                    -0.300970
     37 C                    -0.058432
     38 H                     0.121340
     39 H                     0.095227
     40 H                     0.095192
     41 H                     0.219135
     42 H                     0.116190
     43 H                     0.114110
     44 H                     0.189052
  ----------------------------------------
  Sum of atomic charges =     0.000000

                    Cartesian Multipole Moments
 -----------------------------------------------------------------
    Charge (ESU x 10^10)
                -0.0000
    Dipole Moment (Debye)
         X       1.5969      Y       3.3898      Z       3.3628
       Tot       5.0348
    Quadrupole Moments (Debye-Ang)
        XX    -180.6256     XY       2.7733     YY    -181.4719
        XZ      -3.4255     YZ      -5.3406     ZZ    -205.8236

 Total job time:  324.99s(wall), 10670.71s(cpu)
        *  Thank you very much for using Q-Chem.  Have a nice day.  *
