 Q-Chem 5.4, Q-Chem, Inc., Pleasanton, CA (2021)
 Q-Chem 5.4.0 for Intel X86 EM64T Linux

User input:
--------------------------------------------------------------
$molecule
0 1
C	0.147685	-8.517702	-0.284919
C	-0.212552	-7.641575	0.728574
S	0.661757	-7.638634	-1.745304
C	-0.083761	-6.264785	0.374824
H	-0.565513	-7.966081	1.715621
C	0.405665	-6.072714	-0.965104
C	0.574617	-4.787049	-1.502136
C	-0.413763	-5.162801	1.214687
C	-0.248748	-3.874817	0.675870
C	0.243888	-3.683952	-0.664513
O	-0.838511	-5.499772	2.464209
O	1.000176	-4.459055	-2.757750
C	1.893778	-5.329063	-3.441858
H	2.284868	-4.755694	-4.303826
H	1.383341	-6.238095	-3.828743
H	2.741817	-5.637262	-2.792824
C	-1.586168	-4.572261	3.241222
H	-1.974033	-5.139743	4.108274
H	-2.441448	-4.153131	2.668916
H	-0.954660	-3.739531	3.620041
C	0.369302	-2.306654	-1.015668
S	-0.517367	-2.306501	1.453394
C	-0.000000	-1.435185	-0.000000
H	0.724300	-1.978138	-2.000559
C	0.000000	0.000000	0.000000
S	0.157577	0.890937	1.507541
C	0.429889	2.439720	0.718873
C	0.157797	0.890576	-1.067872
C	0.396915	2.260004	-0.686410
S	0.118307	0.650207	-2.805516
C	0.417036	2.376229	-3.054530
C	0.537616	3.074202	-1.862551
F	0.764992	4.391378	-1.819088
C	0.496696	2.817118	-4.456084
O	0.370874	2.057582	-5.406510
O	0.723861	4.148418	-4.569225
C	0.814976	4.635075	-5.916207
H	0.999286	5.720591	-5.833064
H	-0.125909	4.442226	-6.470168
H	1.645504	4.140465	-6.459293
H	0.588993	3.350182	1.306486
H	-0.699838	-9.143623	-0.588198
H	0.992270	-9.149441	0.014470
H	-1.017360	-1.443175	-0.362373
$end

$rem
JOBTYPE		SP
EXCHANGE	HF
CORRELATION	pRIMP2
BASIS		cc-pvtz
METHOD		rimp2
AUX_BASIS	rimp2-cc-pvtz
SOLVENT_METHOD	PCM
PURECART	11111
SYMMETRY	false
MEM_TOTAL	110000
SCF_CONVERGENCE = 6
THRESH=10
GUI = 2
$end

$solvent
dielectric 4.90
$end
--------------------------------------------------------------

             Standard Nuclear Orientation (Angstroms)
    I     Atom           X                Y                Z
 ----------------------------------------------------------------
    1      C       0.1476850000    -8.5177020000    -0.2849190000
    2      C      -0.2125520000    -7.6415750000     0.7285740000
    3      S       0.6617570000    -7.6386340000    -1.7453040000
    4      C      -0.0837610000    -6.2647850000     0.3748240000
    5      H      -0.5655130000    -7.9660810000     1.7156210000
    6      C       0.4056650000    -6.0727140000    -0.9651040000
    7      C       0.5746170000    -4.7870490000    -1.5021360000
    8      C      -0.4137630000    -5.1628010000     1.2146870000
    9      C      -0.2487480000    -3.8748170000     0.6758700000
   10      C       0.2438880000    -3.6839520000    -0.6645130000
   11      O      -0.8385110000    -5.4997720000     2.4642090000
   12      O       1.0001760000    -4.4590550000    -2.7577500000
   13      C       1.8937780000    -5.3290630000    -3.4418580000
   14      H       2.2848680000    -4.7556940000    -4.3038260000
   15      H       1.3833410000    -6.2380950000    -3.8287430000
   16      H       2.7418170000    -5.6372620000    -2.7928240000
   17      C      -1.5861680000    -4.5722610000     3.2412220000
   18      H      -1.9740330000    -5.1397430000     4.1082740000
   19      H      -2.4414480000    -4.1531310000     2.6689160000
   20      H      -0.9546600000    -3.7395310000     3.6200410000
   21      C       0.3693020000    -2.3066540000    -1.0156680000
   22      S      -0.5173670000    -2.3065010000     1.4533940000
   23      C       0.0000000000    -1.4351850000     0.0000000000
   24      H       0.7243000000    -1.9781380000    -2.0005590000
   25      C       0.0000000000     0.0000000000     0.0000000000
   26      S       0.1575770000     0.8909370000     1.5075410000
   27      C       0.4298890000     2.4397200000     0.7188730000
   28      C       0.1577970000     0.8905760000    -1.0678720000
   29      C       0.3969150000     2.2600040000    -0.6864100000
   30      S       0.1183070000     0.6502070000    -2.8055160000
   31      C       0.4170360000     2.3762290000    -3.0545300000
   32      C       0.5376160000     3.0742020000    -1.8625510000
   33      F       0.7649920000     4.3913780000    -1.8190880000
   34      C       0.4966960000     2.8171180000    -4.4560840000
   35      O       0.3708740000     2.0575820000    -5.4065100000
   36      O       0.7238610000     4.1484180000    -4.5692250000
   37      C       0.8149760000     4.6350750000    -5.9162070000
   38      H       0.9992860000     5.7205910000    -5.8330640000
   39      H      -0.1259090000     4.4422260000    -6.4701680000
   40      H       1.6455040000     4.1404650000    -6.4592930000
   41      H       0.5889930000     3.3501820000     1.3064860000
   42      H      -0.6998380000    -9.1436230000    -0.5881980000
   43      H       0.9922700000    -9.1494410000     0.0144700000
   44      H      -1.0173600000    -1.4431750000    -0.3623730000
 ----------------------------------------------------------------

   11   -2755.3410704146      8.40e-07  Convergence criterion met
 Total energy in the final basis set =    -2755.3410704146
        RIMP2         total energy =     -2760.4323163064 a.u.

                    Orbital Energies (a.u.)
 --------------------------------------------------------------

 Alpha MOs
 -- Occupied --
-92.0146 -91.9972 -91.9826 -91.9593 -26.3430 -20.6151 -20.5892 -20.5875
-20.5616 -11.4096 -11.3819 -11.3109 -11.3105 -11.3100 -11.3008 -11.2983
-11.2932 -11.2889 -11.2860 -11.2857 -11.2848 -11.2840 -11.2827 -11.2744
-11.2739 -11.2607 -11.2596 -11.2509 -11.2398  -9.0132  -8.9973  -8.9848
 -8.9619  -6.6940  -6.6934  -6.6929  -6.6784  -6.6777  -6.6765  -6.6659
 -6.6650  -6.6638  -6.6431  -6.6422  -6.6411  -1.6601  -1.4675  -1.4124
 -1.4094  -1.3702  -1.2301  -1.2034  -1.1753  -1.1373  -1.1017  -1.0482
 -1.0453  -1.0233  -1.0047  -0.9994  -0.9629  -0.9595  -0.9497  -0.9410
 -0.8956  -0.8711  -0.8648  -0.8089  -0.8017  -0.7902  -0.7847  -0.7689
 -0.7572  -0.7378  -0.7249  -0.7103  -0.6996  -0.6942  -0.6848  -0.6815
 -0.6740  -0.6642  -0.6573  -0.6494  -0.6390  -0.6315  -0.6212  -0.6157
 -0.6123  -0.5984  -0.5937  -0.5772  -0.5718  -0.5654  -0.5603  -0.5537
 -0.5473  -0.5358  -0.5313  -0.5284  -0.5138  -0.5096  -0.5087  -0.5023
 -0.4854  -0.4823  -0.4769  -0.4738  -0.4701  -0.4664  -0.4625  -0.4482
 -0.4330  -0.3950  -0.3872  -0.3718  -0.3503  -0.2987  -0.2893  -0.2187

          Ground-State Mulliken Net Atomic Charges

     Atom                 Charge (a.u.)
  ----------------------------------------
      1 C                    -0.070672
      2 C                    -0.252703
      3 S                    -0.132737
      4 C                    -0.050299
      5 H                     0.194292
      6 C                    -0.050384
      7 C                     0.222135
      8 C                     0.235306
      9 C                    -0.076562
     10 C                    -0.028730
     11 O                    -0.333894
     12 O                    -0.343163
     13 C                    -0.083309
     14 H                     0.121159
     15 H                     0.092440
     16 H                     0.092869
     17 C                    -0.088351
     18 H                     0.124891
     19 H                     0.093359
     20 H                     0.090322
     21 C                    -0.335553
     22 S                    -0.093781
     23 C                     0.143479
     24 H                     0.200100
     25 C                    -0.047879
     26 S                     0.084565
     27 C                    -0.219177
     28 C                    -0.002306
     29 C                    -0.107689
     30 S                    -0.006019
     31 C                    -0.161569
     32 C                     0.405311
     33 F                    -0.207364
     34 C                     0.443094
     35 O                    -0.460657
     36 O                    -0.300467
     37 C                    -0.058690
     38 H                     0.121554
     39 H                     0.095202
     40 H                     0.095165
     41 H                     0.216587
     42 H                     0.118449
     43 H                     0.116089
     44 H                     0.205588
  ----------------------------------------
  Sum of atomic charges =     0.000000

                    Cartesian Multipole Moments
 -----------------------------------------------------------------
    Charge (ESU x 10^10)
                -0.0000
    Dipole Moment (Debye)
         X      -0.2997      Y       1.6232      Z       3.0543
       Tot       3.4718
    Quadrupole Moments (Debye-Ang)
        XX    -194.0750     XY       4.1221     YY    -170.7922
        XZ     -10.5522     YZ     -11.6564     ZZ    -195.1563

 Total job time:  349.50s(wall), 11055.11s(cpu)
        *  Thank you very much for using Q-Chem.  Have a nice day.  *
