 Q-Chem 5.4, Q-Chem, Inc., Pleasanton, CA (2021)
 Q-Chem 5.4.0 for Intel X86 EM64T Linux

User input:
--------------------------------------------------------------
$molecule
0 1
C	-0.194917	-8.517702	0.254945
C	0.335839	-7.641575	-0.680596
S	-0.954772	-7.638634	1.603876
C	0.147576	-6.264785	-0.354585
H	0.854836	-7.966081	-1.591356
C	-0.567090	-6.072714	0.879999
C	-0.826731	-4.787049	1.379534
C	0.618405	-5.162801	-1.124384
C	0.362333	-3.874817	-0.622407
C	-0.355575	-3.683952	0.612067
O	1.253677	-5.499772	-2.281166
O	-1.463859	-4.459055	2.542174
C	-2.462679	-5.329063	3.060718
H	-2.997507	-4.755694	3.841678
H	-2.027179	-6.238095	3.530361
H	-3.185132	-5.637262	2.274283
C	2.124902	-4.572261	-2.916545
H	2.657438	-5.139743	-3.703073
H	2.867810	-4.153131	-2.204417
H	1.568770	-3.739531	-3.399269
C	-0.540061	-2.306654	0.936109
S	0.761887	-2.306501	-1.341474
C	-0.000000	-1.435185	-0.000000
H	-1.060690	-1.978138	1.844392
C	0.000000	0.000000	0.000000
S	0.783786	0.451972	1.507541
C	2.145261	1.238908	0.718873
C	0.783650	0.451572	-1.067872
C	1.986396	1.148648	-0.686410
S	0.574133	0.327317	-2.805516
C	2.088363	1.207943	-3.054530
C	2.700548	1.564221	-1.862551
F	3.855718	2.236706	-1.819088
C	2.477307	1.430318	-4.456084
O	1.814592	1.038482	-5.406510
O	3.643162	2.112042	-4.569225
C	4.074530	2.355061	-5.916207
H	5.024556	2.911627	-5.833064
H	3.322010	2.951860	-6.470168
H	4.229490	1.400910	-6.459293
H	2.944986	1.702260	1.306486
H	0.587067	-9.143623	0.700788
H	-0.974683	-9.149441	-0.186556
H	0.938979	-1.443175	0.533530
$end

$rem
JOBTYPE		SP
EXCHANGE	HF
CORRELATION	pRIMP2
BASIS		cc-pvtz
METHOD		rimp2
AUX_BASIS	rimp2-cc-pvtz
SOLVENT_METHOD	PCM
PURECART	11111
SYMMETRY	false
MEM_TOTAL	110000
SCF_CONVERGENCE = 6
THRESH=10
GUI = 2
$end

$solvent
dielectric 4.90
$end
--------------------------------------------------------------

             Standard Nuclear Orientation (Angstroms)
    I     Atom           X                Y                Z
 ----------------------------------------------------------------
    1      C      -0.1949170000    -8.5177020000     0.2549450000
    2      C       0.3358390000    -7.6415750000    -0.6805960000
    3      S      -0.9547720000    -7.6386340000     1.6038760000
    4      C       0.1475760000    -6.2647850000    -0.3545850000
    5      H       0.8548360000    -7.9660810000    -1.5913560000
    6      C      -0.5670900000    -6.0727140000     0.8799990000
    7      C      -0.8267310000    -4.7870490000     1.3795340000
    8      C       0.6184050000    -5.1628010000    -1.1243840000
    9      C       0.3623330000    -3.8748170000    -0.6224070000
   10      C      -0.3555750000    -3.6839520000     0.6120670000
   11      O       1.2536770000    -5.4997720000    -2.2811660000
   12      O      -1.4638590000    -4.4590550000     2.5421740000
   13      C      -2.4626790000    -5.3290630000     3.0607180000
   14      H      -2.9975070000    -4.7556940000     3.8416780000
   15      H      -2.0271790000    -6.2380950000     3.5303610000
   16      H      -3.1851320000    -5.6372620000     2.2742830000
   17      C       2.1249020000    -4.5722610000    -2.9165450000
   18      H       2.6574380000    -5.1397430000    -3.7030730000
   19      H       2.8678100000    -4.1531310000    -2.2044170000
   20      H       1.5687700000    -3.7395310000    -3.3992690000
   21      C      -0.5400610000    -2.3066540000     0.9361090000
   22      S       0.7618870000    -2.3065010000    -1.3414740000
   23      C       0.0000000000    -1.4351850000     0.0000000000
   24      H      -1.0606900000    -1.9781380000     1.8443920000
   25      C       0.0000000000     0.0000000000     0.0000000000
   26      S       0.7837860000     0.4519720000     1.5075410000
   27      C       2.1452610000     1.2389080000     0.7188730000
   28      C       0.7836500000     0.4515720000    -1.0678720000
   29      C       1.9863960000     1.1486480000    -0.6864100000
   30      S       0.5741330000     0.3273170000    -2.8055160000
   31      C       2.0883630000     1.2079430000    -3.0545300000
   32      C       2.7005480000     1.5642210000    -1.8625510000
   33      F       3.8557180000     2.2367060000    -1.8190880000
   34      C       2.4773070000     1.4303180000    -4.4560840000
   35      O       1.8145920000     1.0384820000    -5.4065100000
   36      O       3.6431620000     2.1120420000    -4.5692250000
   37      C       4.0745300000     2.3550610000    -5.9162070000
   38      H       5.0245560000     2.9116270000    -5.8330640000
   39      H       3.3220100000     2.9518600000    -6.4701680000
   40      H       4.2294900000     1.4009100000    -6.4592930000
   41      H       2.9449860000     1.7022600000     1.3064860000
   42      H       0.5870670000    -9.1436230000     0.7007880000
   43      H      -0.9746830000    -9.1494410000    -0.1865560000
   44      H       0.9389790000    -1.4431750000     0.5335300000
 ----------------------------------------------------------------

   11   -2755.2620254326      8.13e-07  Convergence criterion met
 Total energy in the final basis set =    -2755.2620254326
        RIMP2         total energy =     -2760.3729434854 a.u.

                    Orbital Energies (a.u.)
 --------------------------------------------------------------

 Alpha MOs
 -- Occupied --
-92.0062 -92.0044 -91.9720 -91.9572 -26.3456 -20.6160 -20.5863 -20.5856
-20.5626 -11.4110 -11.3859 -11.3321 -11.3128 -11.3074 -11.3056 -11.2992
-11.2897 -11.2888 -11.2831 -11.2823 -11.2801 -11.2775 -11.2730 -11.2710
-11.2645 -11.2569 -11.2543 -11.2490 -11.2358  -9.0072  -9.0045  -8.9746
 -8.9598  -6.6878  -6.6869  -6.6866  -6.6854  -6.6846  -6.6836  -6.6555
 -6.6546  -6.6533  -6.6411  -6.6401  -6.6391  -1.6627  -1.4685  -1.4091
 -1.4079  -1.3713  -1.2457  -1.1986  -1.1735  -1.1423  -1.0981  -1.0508
 -1.0432  -1.0303  -1.0011  -0.9935  -0.9674  -0.9558  -0.9492  -0.9417
 -0.8920  -0.8722  -0.8570  -0.8210  -0.7948  -0.7871  -0.7813  -0.7678
 -0.7573  -0.7387  -0.7276  -0.7165  -0.6955  -0.6937  -0.6859  -0.6808
 -0.6750  -0.6658  -0.6546  -0.6476  -0.6363  -0.6309  -0.6193  -0.6148
 -0.6104  -0.6026  -0.5909  -0.5784  -0.5715  -0.5679  -0.5587  -0.5557
 -0.5391  -0.5329  -0.5310  -0.5260  -0.5133  -0.5117  -0.5066  -0.5003
 -0.4864  -0.4815  -0.4772  -0.4737  -0.4683  -0.4620  -0.4525  -0.4448
 -0.4277  -0.3868  -0.3839  -0.3676  -0.3529  -0.3028  -0.2861  -0.2145

          Ground-State Mulliken Net Atomic Charges

     Atom                 Charge (a.u.)
  ----------------------------------------
      1 C                    -0.070276
      2 C                    -0.261831
      3 S                    -0.137953
      4 C                    -0.048567
      5 H                     0.193106
      6 C                    -0.051340
      7 C                     0.217185
      8 C                     0.225966
      9 C                    -0.072390
     10 C                    -0.023778
     11 O                    -0.334943
     12 O                    -0.343301
     13 C                    -0.082816
     14 H                     0.119460
     15 H                     0.091711
     16 H                     0.092894
     17 C                    -0.088701
     18 H                     0.123536
     19 H                     0.090530
     20 H                     0.092765
     21 C                    -0.343300
     22 S                    -0.100262
     23 C                     0.132568
     24 H                     0.199665
     25 C                    -0.140360
     26 S                     0.070858
     27 C                    -0.126151
     28 C                     0.014326
     29 C                    -0.101773
     30 S                     0.057490
     31 C                    -0.151220
     32 C                     0.396421
     33 F                    -0.205542
     34 C                     0.446960
     35 O                    -0.460986
     36 O                    -0.300841
     37 C                    -0.058231
     38 H                     0.121611
     39 H                     0.095484
     40 H                     0.095146
     41 H                     0.220715
     42 H                     0.116869
     43 H                     0.114663
     44 H                     0.174634
  ----------------------------------------
  Sum of atomic charges =     0.000000

                    Cartesian Multipole Moments
 -----------------------------------------------------------------
    Charge (ESU x 10^10)
                -0.0000
    Dipole Moment (Debye)
         X       3.9376      Y       2.2314      Z       2.4309
       Tot       5.1374
    Quadrupole Moments (Debye-Ang)
        XX    -178.0623     XY       6.0444     YY    -188.9077
        XZ     -15.5228     YZ      -0.0035     ZZ    -196.5933

 Total job time:  331.40s(wall), 10822.09s(cpu)
        *  Thank you very much for using Q-Chem.  Have a nice day.  *
