 Q-Chem 5.4, Q-Chem, Inc., Pleasanton, CA (2021)
 Q-Chem 5.4.0 for Intel X86 EM64T Linux

User input:
--------------------------------------------------------------
$molecule
0 1
C	-0.320589	-8.517702	0.014560
C	0.737240	-7.641575	-0.180211
S	-1.842356	-7.638634	0.299553
C	0.366488	-6.264785	-0.114873
H	1.768528	-7.966081	-0.368061
C	-1.038637	-6.072714	0.131236
C	-1.588197	-4.787049	0.253435
C	1.258831	-5.162801	-0.249014
C	0.709695	-3.874817	-0.122513
C	-0.697430	-3.683952	0.121043
O	2.553323	-5.499772	-0.505933
O	-2.888369	-4.459055	0.512697
C	-3.927625	-5.329063	0.080869
H	-4.869656	-4.755694	0.173159
H	-4.007459	-6.238095	0.716363
H	-3.789565	-5.637262	-0.978072
C	3.600064	-4.572261	-0.246949
H	4.544887	-5.139743	-0.344574
H	3.532074	-4.153131	0.779898
H	3.612378	-3.739531	-0.983261
C	-1.064246	-2.306654	0.188009
S	1.517360	-2.306501	-0.278644
C	0.000000	-1.435185	0.000000
H	-2.094685	-1.978138	0.373017
C	0.000000	0.000000	0.000000
S	0.452792	0.783312	1.507541
C	1.238397	2.145556	0.718873
C	0.452875	0.782898	-1.067872
C	1.145945	1.987956	-0.686410
S	0.333556	0.570531	-2.805516
C	1.204604	2.090290	-3.054530
C	1.556633	2.704929	-1.862551
F	2.220797	3.864903	-1.819088
C	1.430252	2.477345	-4.456084
O	1.052242	1.806648	-5.406510
O	2.099050	3.650663	-4.569225
C	2.351116	4.076808	-5.916207
H	2.895579	5.033821	-5.833064
H	1.401015	4.217390	-6.470168
H	2.962391	3.327969	-6.459293
H	1.699302	2.946693	1.306486
H	-0.159475	-9.143623	0.900177
H	-0.483604	-9.149441	-0.866566
H	0.194856	-1.443175	1.062246
$end

$rem
JOBTYPE		SP
EXCHANGE	HF
CORRELATION	pRIMP2
BASIS		cc-pvtz
METHOD		rimp2
AUX_BASIS	rimp2-cc-pvtz
SOLVENT_METHOD	PCM
PURECART	11111
SYMMETRY	false
MEM_TOTAL	110000
SCF_CONVERGENCE = 6
THRESH=10
GUI = 2
$end

$solvent
dielectric 4.90
$end
--------------------------------------------------------------

             Standard Nuclear Orientation (Angstroms)
    I     Atom           X                Y                Z
 ----------------------------------------------------------------
    1      C      -0.3205890000    -8.5177020000     0.0145600000
    2      C       0.7372400000    -7.6415750000    -0.1802110000
    3      S      -1.8423560000    -7.6386340000     0.2995530000
    4      C       0.3664880000    -6.2647850000    -0.1148730000
    5      H       1.7685280000    -7.9660810000    -0.3680610000
    6      C      -1.0386370000    -6.0727140000     0.1312360000
    7      C      -1.5881970000    -4.7870490000     0.2534350000
    8      C       1.2588310000    -5.1628010000    -0.2490140000
    9      C       0.7096950000    -3.8748170000    -0.1225130000
   10      C      -0.6974300000    -3.6839520000     0.1210430000
   11      O       2.5533230000    -5.4997720000    -0.5059330000
   12      O      -2.8883690000    -4.4590550000     0.5126970000
   13      C      -3.9276250000    -5.3290630000     0.0808690000
   14      H      -4.8696560000    -4.7556940000     0.1731590000
   15      H      -4.0074590000    -6.2380950000     0.7163630000
   16      H      -3.7895650000    -5.6372620000    -0.9780720000
   17      C       3.6000640000    -4.5722610000    -0.2469490000
   18      H       4.5448870000    -5.1397430000    -0.3445740000
   19      H       3.5320740000    -4.1531310000     0.7798980000
   20      H       3.6123780000    -3.7395310000    -0.9832610000
   21      C      -1.0642460000    -2.3066540000     0.1880090000
   22      S       1.5173600000    -2.3065010000    -0.2786440000
   23      C       0.0000000000    -1.4351850000     0.0000000000
   24      H      -2.0946850000    -1.9781380000     0.3730170000
   25      C       0.0000000000     0.0000000000     0.0000000000
   26      S       0.4527920000     0.7833120000     1.5075410000
   27      C       1.2383970000     2.1455560000     0.7188730000
   28      C       0.4528750000     0.7828980000    -1.0678720000
   29      C       1.1459450000     1.9879560000    -0.6864100000
   30      S       0.3335560000     0.5705310000    -2.8055160000
   31      C       1.2046040000     2.0902900000    -3.0545300000
   32      C       1.5566330000     2.7049290000    -1.8625510000
   33      F       2.2207970000     3.8649030000    -1.8190880000
   34      C       1.4302520000     2.4773450000    -4.4560840000
   35      O       1.0522420000     1.8066480000    -5.4065100000
   36      O       2.0990500000     3.6506630000    -4.5692250000
   37      C       2.3511160000     4.0768080000    -5.9162070000
   38      H       2.8955790000     5.0338210000    -5.8330640000
   39      H       1.4010150000     4.2173900000    -6.4701680000
   40      H       2.9623910000     3.3279690000    -6.4592930000
   41      H       1.6993020000     2.9466930000     1.3064860000
   42      H      -0.1594750000    -9.1436230000     0.9001770000
   43      H      -0.4836040000    -9.1494410000    -0.8665660000
   44      H       0.1948560000    -1.4431750000     1.0622460000
 ----------------------------------------------------------------

   11   -2755.3283705401      7.37e-07  Convergence criterion met
 Total energy in the final basis set =    -2755.3283705401
        RIMP2         total energy =     -2760.4190542855 a.u.

                    Orbital Energies (a.u.)
 --------------------------------------------------------------

 Alpha MOs
 -- Occupied --
-92.0161 -92.0009 -91.9759 -91.9566 -26.3444 -20.6151 -20.5866 -20.5855
-20.5616 -11.4098 -11.3839 -11.3180 -11.3081 -11.3050 -11.3041 -11.2982
-11.2923 -11.2891 -11.2860 -11.2837 -11.2823 -11.2817 -11.2767 -11.2705
-11.2704 -11.2568 -11.2539 -11.2482 -11.2336  -9.0151  -9.0008  -8.9781
 -8.9592  -6.6958  -6.6951  -6.6946  -6.6818  -6.6811  -6.6800  -6.6592
 -6.6583  -6.6570  -6.6405  -6.6395  -6.6385  -1.6614  -1.4676  -1.4092
 -1.4081  -1.3703  -1.2315  -1.2015  -1.1722  -1.1388  -1.0983  -1.0462
 -1.0437  -1.0259  -1.0026  -0.9951  -0.9640  -0.9582  -0.9475  -0.9404
 -0.8922  -0.8697  -0.8640  -0.8161  -0.7966  -0.7885  -0.7835  -0.7667
 -0.7569  -0.7377  -0.7262  -0.7173  -0.6963  -0.6870  -0.6848  -0.6789
 -0.6742  -0.6606  -0.6552  -0.6478  -0.6339  -0.6296  -0.6186  -0.6144
 -0.6110  -0.6000  -0.5912  -0.5747  -0.5727  -0.5627  -0.5591  -0.5550
 -0.5439  -0.5329  -0.5313  -0.5239  -0.5121  -0.5084  -0.5065  -0.5002
 -0.4855  -0.4822  -0.4757  -0.4742  -0.4690  -0.4683  -0.4600  -0.4454
 -0.4220  -0.3993  -0.3838  -0.3688  -0.3511  -0.3038  -0.2882  -0.2188

          Ground-State Mulliken Net Atomic Charges

     Atom                 Charge (a.u.)
  ----------------------------------------
      1 C                    -0.069719
      2 C                    -0.268775
      3 S                    -0.139361
      4 C                    -0.041912
      5 H                     0.192221
      6 C                    -0.054550
      7 C                     0.223819
      8 C                     0.221071
      9 C                    -0.072229
     10 C                    -0.046967
     11 O                    -0.335276
     12 O                    -0.343320
     13 C                    -0.082619
     14 H                     0.119649
     15 H                     0.091906
     16 H                     0.093087
     17 C                    -0.086897
     18 H                     0.122962
     19 H                     0.091305
     20 H                     0.090587
     21 C                    -0.262949
     22 S                    -0.071720
     23 C                     0.033574
     24 H                     0.204531
     25 C                    -0.043383
     26 S                     0.092838
     27 C                    -0.174573
     28 C                    -0.040070
     29 C                    -0.077403
     30 S                     0.026515
     31 C                    -0.154613
     32 C                     0.393724
     33 F                    -0.205987
     34 C                     0.446024
     35 O                    -0.460681
     36 O                    -0.301032
     37 C                    -0.058370
     38 H                     0.121387
     39 H                     0.095186
     40 H                     0.095264
     41 H                     0.219685
     42 H                     0.115937
     43 H                     0.113832
     44 H                     0.187302
  ----------------------------------------
  Sum of atomic charges =     0.000000

                    Cartesian Multipole Moments
 -----------------------------------------------------------------
    Charge (ESU x 10^10)
                 0.0000
    Dipole Moment (Debye)
         X       1.8025      Y       3.6083      Z       3.3487
       Tot       5.2424
    Quadrupole Moments (Debye-Ang)
        XX    -179.9308     XY       3.6449     YY    -183.6441
        XZ      -0.8073     YZ      -5.6589     ZZ    -205.1312

 Total job time:  350.03s(wall), 10846.39s(cpu)
        *  Thank you very much for using Q-Chem.  Have a nice day.  *
