 Q-Chem 5.4, Q-Chem, Inc., Pleasanton, CA (2021)
 Q-Chem 5.4.0 for Intel X86 EM64T Linux

User input:
--------------------------------------------------------------
$molecule
0 1
C	-0.070009	-8.517702	-0.313191
C	0.305494	-7.641575	0.694746
S	-0.614924	-7.638634	-1.762350
C	0.176768	-6.264785	0.340973
H	0.669571	-7.966081	1.677747
C	-0.309600	-6.072714	-1.000069
C	-0.525372	-4.787049	-1.520060
C	0.463825	-5.162801	1.196466
C	0.243888	-3.874817	0.677639
C	-0.240312	-3.683952	-0.665815
O	0.941626	-5.499772	2.426678
O	-1.006468	-4.459055	-2.755460
C	-0.761666	-5.329063	-3.853913
H	-1.016135	-4.755694	-4.765607
H	-1.401368	-6.238095	-3.822182
H	0.305161	-5.637262	-3.901833
C	0.868342	-4.572261	3.502489
H	1.128551	-5.139743	4.416005
H	-0.154712	-4.153131	3.613841
H	1.595605	-3.739531	3.386756
C	-0.369957	-2.306654	-1.015430
S	0.537898	-2.306501	1.445922
C	0.000000	-1.435185	0.000000
H	-0.731088	-1.978138	-1.998088
C	0.000000	0.000000	0.000000
S	0.452792	0.783312	1.507541
C	1.238397	2.145556	0.718873
C	0.452875	0.782898	-1.067872
C	1.145945	1.987956	-0.686410
S	0.333556	0.570531	-2.805516
C	1.204604	2.090290	-3.054530
C	1.556633	2.704929	-1.862551
F	2.220797	3.864903	-1.819088
C	1.430252	2.477345	-4.456084
O	1.052242	1.806648	-5.406510
O	2.099050	3.650663	-4.569225
C	2.351116	4.076808	-5.916207
H	2.895579	5.033821	-5.833064
H	1.401015	4.217390	-6.470168
H	2.962391	3.327969	-6.459293
H	1.699302	2.946693	1.306486
H	-0.914194	-9.143623	-0.000738
H	0.769424	-9.149441	-0.626735
H	-1.012272	-1.443175	0.376353
$end

$rem
JOBTYPE		SP
EXCHANGE	HF
CORRELATION	pRIMP2
BASIS		cc-pvtz
METHOD		rimp2
AUX_BASIS	rimp2-cc-pvtz
SOLVENT_METHOD	PCM
PURECART	11111
SYMMETRY	false
MEM_TOTAL	110000
SCF_CONVERGENCE = 6
THRESH=10
GUI = 2
$end

$solvent
dielectric 4.90
$end
--------------------------------------------------------------

             Standard Nuclear Orientation (Angstroms)
    I     Atom           X                Y                Z
 ----------------------------------------------------------------
    1      C      -0.0700090000    -8.5177020000    -0.3131910000
    2      C       0.3054940000    -7.6415750000     0.6947460000
    3      S      -0.6149240000    -7.6386340000    -1.7623500000
    4      C       0.1767680000    -6.2647850000     0.3409730000
    5      H       0.6695710000    -7.9660810000     1.6777470000
    6      C      -0.3096000000    -6.0727140000    -1.0000690000
    7      C      -0.5253720000    -4.7870490000    -1.5200600000
    8      C       0.4638250000    -5.1628010000     1.1964660000
    9      C       0.2438880000    -3.8748170000     0.6776390000
   10      C      -0.2403120000    -3.6839520000    -0.6658150000
   11      O       0.9416260000    -5.4997720000     2.4266780000
   12      O      -1.0064680000    -4.4590550000    -2.7554600000
   13      C      -0.7616660000    -5.3290630000    -3.8539130000
   14      H      -1.0161350000    -4.7556940000    -4.7656070000
   15      H      -1.4013680000    -6.2380950000    -3.8221820000
   16      H       0.3051610000    -5.6372620000    -3.9018330000
   17      C       0.8683420000    -4.5722610000     3.5024890000
   18      H       1.1285510000    -5.1397430000     4.4160050000
   19      H      -0.1547120000    -4.1531310000     3.6138410000
   20      H       1.5956050000    -3.7395310000     3.3867560000
   21      C      -0.3699570000    -2.3066540000    -1.0154300000
   22      S       0.5378980000    -2.3065010000     1.4459220000
   23      C       0.0000000000    -1.4351850000     0.0000000000
   24      H      -0.7310880000    -1.9781380000    -1.9980880000
   25      C       0.0000000000     0.0000000000     0.0000000000
   26      S       0.4527920000     0.7833120000     1.5075410000
   27      C       1.2383970000     2.1455560000     0.7188730000
   28      C       0.4528750000     0.7828980000    -1.0678720000
   29      C       1.1459450000     1.9879560000    -0.6864100000
   30      S       0.3335560000     0.5705310000    -2.8055160000
   31      C       1.2046040000     2.0902900000    -3.0545300000
   32      C       1.5566330000     2.7049290000    -1.8625510000
   33      F       2.2207970000     3.8649030000    -1.8190880000
   34      C       1.4302520000     2.4773450000    -4.4560840000
   35      O       1.0522420000     1.8066480000    -5.4065100000
   36      O       2.0990500000     3.6506630000    -4.5692250000
   37      C       2.3511160000     4.0768080000    -5.9162070000
   38      H       2.8955790000     5.0338210000    -5.8330640000
   39      H       1.4010150000     4.2173900000    -6.4701680000
   40      H       2.9623910000     3.3279690000    -6.4592930000
   41      H       1.6993020000     2.9466930000     1.3064860000
   42      H      -0.9141940000    -9.1436230000    -0.0007380000
   43      H       0.7694240000    -9.1494410000    -0.6267350000
   44      H      -1.0122720000    -1.4431750000     0.3763530000
 ----------------------------------------------------------------

   11   -2755.3212444743      8.80e-07  Convergence criterion met
 Total energy in the final basis set =    -2755.3212444743
        RIMP2         total energy =     -2760.4169588234 a.u.

                    Orbital Energies (a.u.)
 --------------------------------------------------------------

 Alpha MOs
 -- Occupied --
-92.0150 -91.9996 -91.9810 -91.9575 -26.3437 -20.6153 -20.5874 -20.5868
-20.5619 -11.4100 -11.3831 -11.3101 -11.3091 -11.3077 -11.3002 -11.2986
-11.2985 -11.2891 -11.2856 -11.2851 -11.2837 -11.2821 -11.2792 -11.2748
-11.2718 -11.2580 -11.2572 -11.2491 -11.2355  -9.0140  -8.9997  -8.9832
 -8.9601  -6.6948  -6.6941  -6.6936  -6.6807  -6.6800  -6.6789  -6.6642
 -6.6634  -6.6621  -6.6413  -6.6404  -6.6394  -1.6608  -1.4678  -1.4107
 -1.4086  -1.3705  -1.2314  -1.2027  -1.1734  -1.1384  -1.0998  -1.0466
 -1.0456  -1.0249  -1.0039  -0.9975  -0.9636  -0.9594  -0.9484  -0.9405
 -0.8944  -0.8699  -0.8649  -0.8113  -0.8007  -0.7900  -0.7835  -0.7671
 -0.7571  -0.7375  -0.7256  -0.7145  -0.6982  -0.6892  -0.6850  -0.6807
 -0.6743  -0.6617  -0.6566  -0.6485  -0.6382  -0.6310  -0.6194  -0.6145
 -0.6120  -0.5996  -0.5927  -0.5770  -0.5705  -0.5650  -0.5587  -0.5550
 -0.5442  -0.5348  -0.5301  -0.5297  -0.5141  -0.5092  -0.5079  -0.5004
 -0.4854  -0.4822  -0.4765  -0.4745  -0.4710  -0.4677  -0.4578  -0.4459
 -0.4319  -0.3935  -0.3861  -0.3702  -0.3508  -0.3007  -0.2882  -0.2156

          Ground-State Mulliken Net Atomic Charges

     Atom                 Charge (a.u.)
  ----------------------------------------
      1 C                    -0.069883
      2 C                    -0.265307
      3 S                    -0.136903
      4 C                    -0.044624
      5 H                     0.192694
      6 C                    -0.053460
      7 C                     0.225502
      8 C                     0.222765
      9 C                    -0.074748
     10 C                    -0.051264
     11 O                    -0.334332
     12 O                    -0.344305
     13 C                    -0.082915
     14 H                     0.120895
     15 H                     0.092263
     16 H                     0.092938
     17 C                    -0.088539
     18 H                     0.124289
     19 H                     0.092342
     20 H                     0.089658
     21 C                    -0.265545
     22 S                    -0.088120
     23 C                     0.076065
     24 H                     0.203109
     25 C                    -0.074981
     26 S                     0.076064
     27 C                    -0.184883
     28 C                     0.028230
     29 C                    -0.113011
     30 S                     0.005643
     31 C                    -0.161588
     32 C                     0.404916
     33 F                    -0.206349
     34 C                     0.446015
     35 O                    -0.460718
     36 O                    -0.300932
     37 C                    -0.058486
     38 H                     0.121587
     39 H                     0.095129
     40 H                     0.095276
     41 H                     0.219119
     42 H                     0.116625
     43 H                     0.114402
     44 H                     0.205367
  ----------------------------------------
  Sum of atomic charges =     0.000000

                    Cartesian Multipole Moments
 -----------------------------------------------------------------
    Charge (ESU x 10^10)
                 0.0000
    Dipole Moment (Debye)
         X       0.8945      Y       2.7108      Z       3.3055
       Tot       4.3675
    Quadrupole Moments (Debye-Ang)
        XX    -197.8607     XY       5.6717     YY    -180.6276
        XZ      -3.3664     YZ     -10.2649     ZZ    -187.3721

 Total job time:  334.48s(wall), 10659.43s(cpu)
        *  Thank you very much for using Q-Chem.  Have a nice day.  *
