 Q-Chem 5.4, Q-Chem, Inc., Pleasanton, CA (2021)
 Q-Chem 5.4.0 for Intel X86 EM64T Linux

User input:
--------------------------------------------------------------
$molecule
0 1
C	-0.306235	-8.517702	-0.095966
C	0.754415	-7.641575	0.082807
S	-1.833702	-7.638634	-0.348635
C	0.383675	-6.264785	0.017401
H	1.787757	-7.966081	0.259008
C	-1.020885	-6.072714	-0.231913
C	-1.579097	-4.787049	-0.305044
C	1.268082	-5.162801	0.196549
C	0.708796	-3.874817	0.127606
C	-0.696769	-3.683952	-0.124792
O	2.572378	-5.499772	0.397867
O	-2.889532	-4.459055	-0.506103
C	-3.718420	-5.329063	-1.267335
H	-4.635204	-4.755694	-1.502804
H	-4.010790	-6.238095	-0.697471
H	-3.226506	-5.637262	-2.215194
C	3.467415	-4.572261	0.999238
H	4.388648	-5.139743	1.230649
H	3.052323	-4.153131	1.940905
H	3.730819	-3.739531	0.311543
C	-1.064366	-2.306654	-0.187323
S	1.521154	-2.306501	0.257128
C	-0.000000	-1.435185	-0.000000
H	-2.095939	-1.978138	-0.365903
C	0.000000	0.000000	0.000000
S	0.783786	0.451972	1.507541
C	2.145261	1.238908	0.718873
C	0.783650	0.451572	-1.067872
C	1.986396	1.148648	-0.686410
S	0.574133	0.327317	-2.805516
C	2.088363	1.207943	-3.054530
C	2.700548	1.564221	-1.862551
F	3.855718	2.236706	-1.819088
C	2.477307	1.430318	-4.456084
O	1.814592	1.038482	-5.406510
O	3.643162	2.112042	-4.569225
C	4.074530	2.355061	-5.916207
H	5.024556	2.911627	-5.833064
H	3.322010	2.951860	-6.470168
H	4.229490	1.400910	-6.459293
H	2.944986	1.702260	1.306486
H	-0.457736	-9.143623	0.791346
H	-0.158056	-9.149441	-0.979708
H	-0.180205	-1.443175	1.064830
$end

$rem
JOBTYPE		SP
EXCHANGE	HF
CORRELATION	pRIMP2
BASIS		cc-pvtz
METHOD		rimp2
AUX_BASIS	rimp2-cc-pvtz
SOLVENT_METHOD	PCM
PURECART	11111
SYMMETRY	false
MEM_TOTAL	110000
SCF_CONVERGENCE = 6
THRESH=10
GUI = 2
$end

$solvent
dielectric 4.90
$end
--------------------------------------------------------------

             Standard Nuclear Orientation (Angstroms)
    I     Atom           X                Y                Z
 ----------------------------------------------------------------
    1      C      -0.3062350000    -8.5177020000    -0.0959660000
    2      C       0.7544150000    -7.6415750000     0.0828070000
    3      S      -1.8337020000    -7.6386340000    -0.3486350000
    4      C       0.3836750000    -6.2647850000     0.0174010000
    5      H       1.7877570000    -7.9660810000     0.2590080000
    6      C      -1.0208850000    -6.0727140000    -0.2319130000
    7      C      -1.5790970000    -4.7870490000    -0.3050440000
    8      C       1.2680820000    -5.1628010000     0.1965490000
    9      C       0.7087960000    -3.8748170000     0.1276060000
   10      C      -0.6967690000    -3.6839520000    -0.1247920000
   11      O       2.5723780000    -5.4997720000     0.3978670000
   12      O      -2.8895320000    -4.4590550000    -0.5061030000
   13      C      -3.7184200000    -5.3290630000    -1.2673350000
   14      H      -4.6352040000    -4.7556940000    -1.5028040000
   15      H      -4.0107900000    -6.2380950000    -0.6974710000
   16      H      -3.2265060000    -5.6372620000    -2.2151940000
   17      C       3.4674150000    -4.5722610000     0.9992380000
   18      H       4.3886480000    -5.1397430000     1.2306490000
   19      H       3.0523230000    -4.1531310000     1.9409050000
   20      H       3.7308190000    -3.7395310000     0.3115430000
   21      C      -1.0643660000    -2.3066540000    -0.1873230000
   22      S       1.5211540000    -2.3065010000     0.2571280000
   23      C       0.0000000000    -1.4351850000     0.0000000000
   24      H      -2.0959390000    -1.9781380000    -0.3659030000
   25      C       0.0000000000     0.0000000000     0.0000000000
   26      S       0.7837860000     0.4519720000     1.5075410000
   27      C       2.1452610000     1.2389080000     0.7188730000
   28      C       0.7836500000     0.4515720000    -1.0678720000
   29      C       1.9863960000     1.1486480000    -0.6864100000
   30      S       0.5741330000     0.3273170000    -2.8055160000
   31      C       2.0883630000     1.2079430000    -3.0545300000
   32      C       2.7005480000     1.5642210000    -1.8625510000
   33      F       3.8557180000     2.2367060000    -1.8190880000
   34      C       2.4773070000     1.4303180000    -4.4560840000
   35      O       1.8145920000     1.0384820000    -5.4065100000
   36      O       3.6431620000     2.1120420000    -4.5692250000
   37      C       4.0745300000     2.3550610000    -5.9162070000
   38      H       5.0245560000     2.9116270000    -5.8330640000
   39      H       3.3220100000     2.9518600000    -6.4701680000
   40      H       4.2294900000     1.4009100000    -6.4592930000
   41      H       2.9449860000     1.7022600000     1.3064860000
   42      H      -0.4577360000    -9.1436230000     0.7913460000
   43      H      -0.1580560000    -9.1494410000    -0.9797080000
   44      H      -0.1802050000    -1.4431750000     1.0648300000
 ----------------------------------------------------------------

   11   -2755.2752353122      7.06e-07  Convergence criterion met
 Total energy in the final basis set =    -2755.2752353122
        RIMP2         total energy =     -2760.3768802622 a.u.

                    Orbital Energies (a.u.)
 --------------------------------------------------------------

 Alpha MOs
 -- Occupied --
-92.0138 -92.0110 -91.9687 -91.9547 -26.3471 -20.6158 -20.5854 -20.5840
-20.5621 -11.4109 -11.3882 -11.3382 -11.3200 -11.3068 -11.3020 -11.2989
-11.2895 -11.2884 -11.2830 -11.2813 -11.2797 -11.2725 -11.2679 -11.2674
-11.2664 -11.2551 -11.2491 -11.2464 -11.2301  -9.0138  -9.0105  -8.9718
 -8.9573  -6.6944  -6.6934  -6.6933  -6.6914  -6.6907  -6.6897  -6.6528
 -6.6520  -6.6507  -6.6386  -6.6377  -6.6366  -1.6641  -1.4683  -1.4078
 -1.4067  -1.3711  -1.2426  -1.1994  -1.1713  -1.1420  -1.0967  -1.0501
 -1.0420  -1.0294  -1.0008  -0.9928  -0.9670  -0.9592  -0.9466  -0.9398
 -0.8907  -0.8736  -0.8582  -0.8207  -0.7982  -0.7865  -0.7820  -0.7652
 -0.7579  -0.7386  -0.7287  -0.7186  -0.6959  -0.6891  -0.6857  -0.6776
 -0.6750  -0.6626  -0.6541  -0.6467  -0.6344  -0.6308  -0.6169  -0.6136
 -0.6108  -0.6030  -0.5896  -0.5777  -0.5692  -0.5617  -0.5575  -0.5525
 -0.5339  -0.5322  -0.5301  -0.5242  -0.5129  -0.5087  -0.5053  -0.4983
 -0.4872  -0.4830  -0.4769  -0.4759  -0.4726  -0.4614  -0.4560  -0.4435
 -0.4189  -0.3952  -0.3868  -0.3668  -0.3449  -0.3142  -0.2854  -0.2160

          Ground-State Mulliken Net Atomic Charges

     Atom                 Charge (a.u.)
  ----------------------------------------
      1 C                    -0.069330
      2 C                    -0.278162
      3 S                    -0.143395
      4 C                    -0.042427
      5 H                     0.190721
      6 C                    -0.056788
      7 C                     0.226791
      8 C                     0.221947
      9 C                    -0.076567
     10 C                    -0.053750
     11 O                    -0.335964
     12 O                    -0.343023
     13 C                    -0.082581
     14 H                     0.119372
     15 H                     0.091745
     16 H                     0.092763
     17 C                    -0.086262
     18 H                     0.122580
     19 H                     0.090144
     20 H                     0.089201
     21 C                    -0.280786
     22 S                    -0.098496
     23 C                     0.027411
     24 H                     0.205488
     25 C                    -0.176829
     26 S                     0.109552
     27 C                    -0.109758
     28 C                     0.099424
     29 C                    -0.124637
     30 S                     0.060783
     31 C                    -0.153328
     32 C                     0.396664
     33 F                    -0.203713
     34 C                     0.448655
     35 O                    -0.462311
     36 O                    -0.301416
     37 C                    -0.058130
     38 H                     0.121512
     39 H                     0.095246
     40 H                     0.095523
     41 H                     0.222198
     42 H                     0.114450
     43 H                     0.112381
     44 H                     0.183100
  ----------------------------------------
  Sum of atomic charges =     0.000000

                    Cartesian Multipole Moments
 -----------------------------------------------------------------
    Charge (ESU x 10^10)
                 0.0000
    Dipole Moment (Debye)
         X       3.6953      Y       3.9299      Z       3.0491
       Tot       6.1965
    Quadrupole Moments (Debye-Ang)
        XX    -174.5849     XY       5.0840     YY    -198.0342
        XZ       1.6367     YZ      -4.1927     ZZ    -199.4413

 Total job time:  330.59s(wall), 10723.19s(cpu)
        *  Thank you very much for using Q-Chem.  Have a nice day.  *
