 Q-Chem 5.4, Q-Chem, Inc., Pleasanton, CA (2021)
 Q-Chem 5.4.0 for Intel X86 EM64T Linux

User input:
--------------------------------------------------------------
$molecule
0 1
C	-0.284919	-8.517702	-0.147685
C	0.728574	-7.641575	0.212552
S	-1.745304	-7.638634	-0.661757
C	0.374824	-6.264785	0.083761
H	1.715621	-7.966081	0.565513
C	-0.965104	-6.072714	-0.405665
C	-1.502136	-4.787049	-0.574617
C	1.214687	-5.162801	0.413763
C	0.675870	-3.874817	0.248748
C	-0.664513	-3.683952	-0.243888
O	2.464209	-5.499772	0.838511
O	-2.757750	-4.459055	-1.000176
C	-3.441858	-5.329063	-1.893778
H	-4.303826	-4.755694	-2.284868
H	-3.828743	-6.238095	-1.383341
H	-2.792824	-5.637262	-2.741817
C	3.241222	-4.572261	1.586168
H	4.108274	-5.139743	1.974033
H	2.668916	-4.153131	2.441448
H	3.620041	-3.739531	0.954660
C	-1.015668	-2.306654	-0.369302
S	1.453394	-2.306501	0.517367
C	-0.000000	-1.435185	-0.000000
H	-2.000559	-1.978138	-0.724300
C	0.000000	0.000000	0.000000
S	0.309893	0.850039	1.507541
C	0.847011	2.328006	0.718873
C	0.310046	0.849645	-1.067872
C	0.783331	2.156746	-0.686410
S	0.229416	0.619785	-2.805516
C	0.823328	2.267711	-3.054530
C	1.063278	2.934142	-1.862551
F	1.515925	4.191824	-1.819088
C	0.978337	2.688069	-4.456084
O	0.722535	1.961921	-5.406510
O	1.433229	3.959697	-4.569225
C	1.607467	4.423139	-5.916207
H	1.977475	5.460158	-5.833064
H	0.647388	4.396602	-6.470168
H	2.339490	3.791823	-6.459293
H	1.161798	3.197007	1.306486
H	-0.588198	-9.143623	0.699838
H	0.014470	-9.149441	-0.992270
H	-0.362373	-1.443175	1.017360
$end

$rem
JOBTYPE		SP
EXCHANGE	HF
CORRELATION	pRIMP2
BASIS		cc-pvtz
METHOD		rimp2
AUX_BASIS	rimp2-cc-pvtz
SOLVENT_METHOD	PCM
PURECART	11111
SYMMETRY	false
MEM_TOTAL	110000
SCF_CONVERGENCE = 6
THRESH=10
GUI = 2
$end

$solvent
dielectric 4.90
$end
--------------------------------------------------------------

             Standard Nuclear Orientation (Angstroms)
    I     Atom           X                Y                Z
 ----------------------------------------------------------------
    1      C      -0.2849190000    -8.5177020000    -0.1476850000
    2      C       0.7285740000    -7.6415750000     0.2125520000
    3      S      -1.7453040000    -7.6386340000    -0.6617570000
    4      C       0.3748240000    -6.2647850000     0.0837610000
    5      H       1.7156210000    -7.9660810000     0.5655130000
    6      C      -0.9651040000    -6.0727140000    -0.4056650000
    7      C      -1.5021360000    -4.7870490000    -0.5746170000
    8      C       1.2146870000    -5.1628010000     0.4137630000
    9      C       0.6758700000    -3.8748170000     0.2487480000
   10      C      -0.6645130000    -3.6839520000    -0.2438880000
   11      O       2.4642090000    -5.4997720000     0.8385110000
   12      O      -2.7577500000    -4.4590550000    -1.0001760000
   13      C      -3.4418580000    -5.3290630000    -1.8937780000
   14      H      -4.3038260000    -4.7556940000    -2.2848680000
   15      H      -3.8287430000    -6.2380950000    -1.3833410000
   16      H      -2.7928240000    -5.6372620000    -2.7418170000
   17      C       3.2412220000    -4.5722610000     1.5861680000
   18      H       4.1082740000    -5.1397430000     1.9740330000
   19      H       2.6689160000    -4.1531310000     2.4414480000
   20      H       3.6200410000    -3.7395310000     0.9546600000
   21      C      -1.0156680000    -2.3066540000    -0.3693020000
   22      S       1.4533940000    -2.3065010000     0.5173670000
   23      C       0.0000000000    -1.4351850000     0.0000000000
   24      H      -2.0005590000    -1.9781380000    -0.7243000000
   25      C       0.0000000000     0.0000000000     0.0000000000
   26      S       0.3098930000     0.8500390000     1.5075410000
   27      C       0.8470110000     2.3280060000     0.7188730000
   28      C       0.3100460000     0.8496450000    -1.0678720000
   29      C       0.7833310000     2.1567460000    -0.6864100000
   30      S       0.2294160000     0.6197850000    -2.8055160000
   31      C       0.8233280000     2.2677110000    -3.0545300000
   32      C       1.0632780000     2.9341420000    -1.8625510000
   33      F       1.5159250000     4.1918240000    -1.8190880000
   34      C       0.9783370000     2.6880690000    -4.4560840000
   35      O       0.7225350000     1.9619210000    -5.4065100000
   36      O       1.4332290000     3.9596970000    -4.5692250000
   37      C       1.6074670000     4.4231390000    -5.9162070000
   38      H       1.9774750000     5.4601580000    -5.8330640000
   39      H       0.6473880000     4.3966020000    -6.4701680000
   40      H       2.3394900000     3.7918230000    -6.4592930000
   41      H       1.1617980000     3.1970070000     1.3064860000
   42      H      -0.5881980000    -9.1436230000     0.6998380000
   43      H       0.0144700000    -9.1494410000    -0.9922700000
   44      H      -0.3623730000    -1.4431750000     1.0173600000
 ----------------------------------------------------------------

   11   -2755.3384419159      7.55e-07  Convergence criterion met
 Total energy in the final basis set =    -2755.3384419159
        RIMP2         total energy =     -2760.4271302355 a.u.

                    Orbital Energies (a.u.)
 --------------------------------------------------------------

 Alpha MOs
 -- Occupied --
-92.0173 -91.9994 -91.9763 -91.9573 -26.3438 -20.6151 -20.5867 -20.5861
-20.5616 -11.4097 -11.3831 -11.3143 -11.3085 -11.3058 -11.3008 -11.2981
-11.2960 -11.2890 -11.2854 -11.2841 -11.2824 -11.2823 -11.2781 -11.2718
-11.2716 -11.2574 -11.2558 -11.2488 -11.2350  -9.0160  -8.9995  -8.9786
 -8.9599  -6.6967  -6.6961  -6.6956  -6.6805  -6.6797  -6.6786  -6.6597
 -6.6588  -6.6575  -6.6412  -6.6402  -6.6392  -1.6609  -1.4675  -1.4097
 -1.4084  -1.3702  -1.2293  -1.2021  -1.1728  -1.1381  -1.0989  -1.0455
 -1.0443  -1.0249  -1.0032  -0.9961  -0.9630  -0.9589  -0.9478  -0.9402
 -0.8928  -0.8689  -0.8657  -0.8137  -0.7987  -0.7884  -0.7841  -0.7670
 -0.7568  -0.7375  -0.7258  -0.7170  -0.6971  -0.6863  -0.6847  -0.6793
 -0.6741  -0.6603  -0.6556  -0.6481  -0.6334  -0.6302  -0.6192  -0.6145
 -0.6115  -0.5995  -0.5914  -0.5753  -0.5717  -0.5639  -0.5580  -0.5532
 -0.5463  -0.5331  -0.5311  -0.5259  -0.5127  -0.5076  -0.5068  -0.5008
 -0.4851  -0.4819  -0.4758  -0.4742  -0.4720  -0.4687  -0.4601  -0.4456
 -0.4234  -0.3988  -0.3848  -0.3693  -0.3506  -0.3022  -0.2885  -0.2196

          Ground-State Mulliken Net Atomic Charges

     Atom                 Charge (a.u.)
  ----------------------------------------
      1 C                    -0.069922
      2 C                    -0.265375
      3 S                    -0.137239
      4 C                    -0.042333
      5 H                     0.192639
      6 C                    -0.053067
      7 C                     0.224577
      8 C                     0.221756
      9 C                    -0.074975
     10 C                    -0.050128
     11 O                    -0.335206
     12 O                    -0.343525
     13 C                    -0.082578
     14 H                     0.120001
     15 H                     0.091712
     16 H                     0.093187
     17 C                    -0.086675
     18 H                     0.122963
     19 H                     0.091408
     20 H                     0.090414
     21 C                    -0.252547
     22 S                    -0.071383
     23 C                     0.041974
     24 H                     0.206986
     25 C                    -0.091404
     26 S                     0.092360
     27 C                    -0.180330
     28 C                     0.031697
     29 C                    -0.105531
     30 S                     0.012182
     31 C                    -0.156558
     32 C                     0.399631
     33 F                    -0.206707
     34 C                     0.444242
     35 O                    -0.460649
     36 O                    -0.300846
     37 C                    -0.058393
     38 H                     0.121356
     39 H                     0.095122
     40 H                     0.095265
     41 H                     0.219054
     42 H                     0.116451
     43 H                     0.114325
     44 H                     0.186066
  ----------------------------------------
  Sum of atomic charges =     0.000000

                    Cartesian Multipole Moments
 -----------------------------------------------------------------
    Charge (ESU x 10^10)
                -0.0000
    Dipole Moment (Debye)
         X       0.9227      Y       3.3660      Z       3.4612
       Tot       4.9154
    Quadrupole Moments (Debye-Ang)
        XX    -188.9551     XY       1.9131     YY    -179.3465
        XZ       6.5261     YZ      -8.1387     ZZ    -198.6078

 Total job time:  370.17s(wall), 11055.80s(cpu)
        *  Thank you very much for using Q-Chem.  Have a nice day.  *
