 Q-Chem 5.4, Q-Chem, Inc., Pleasanton, CA (2021)
 Q-Chem 5.4.0 for Intel X86 EM64T Linux

User input:
--------------------------------------------------------------
$molecule
0 1
C	-0.217225	-8.517702	-0.236226
C	0.611939	-7.641575	0.448921
S	-1.413715	-7.638634	-1.218777
C	0.323572	-6.264785	0.206907
H	1.418739	-7.966081	1.118185
C	-0.768156	-6.072714	-0.711285
C	-1.215016	-4.787049	-1.053725
C	0.999917	-5.162801	0.804258
C	0.550033	-3.874817	0.464908
C	-0.541024	-3.683952	-0.456457
O	2.028811	-5.499772	1.630752
O	-2.249357	-4.459055	-1.883064
C	-2.586579	-5.329063	-2.956754
H	-3.262802	-4.755694	-3.619069
H	-3.124711	-6.238095	-2.609423
H	-1.686639	-5.637262	-3.531667
C	2.503251	-4.572261	2.599073
H	3.185356	-5.139743	3.260097
H	1.672937	-4.153131	3.207034
H	3.075213	-3.739531	2.135214
C	-0.828107	-2.306654	-0.694410
S	1.188794	-2.306501	0.983256
C	-0.000000	-1.435185	-0.000000
H	-1.632185	-1.978138	-1.364851
C	0.000000	0.000000	0.000000
S	0.382799	0.819795	1.507541
C	1.046687	2.245325	0.718873
C	0.382918	0.819389	-1.067872
C	0.968323	2.080267	-0.686410
S	0.282561	0.597432	-2.805516
C	1.017839	2.187324	-3.054530
C	1.314960	2.830306	-1.862551
F	1.875498	4.043751	-1.819088
C	1.208895	2.592573	-4.456084
O	0.890778	1.891482	-5.406510
O	1.772886	3.819715	-4.569225
C	1.986852	4.266207	-5.916207
H	2.445834	5.267032	-5.833064
H	1.028114	4.323448	-6.470168
H	2.661066	3.573494	-6.459293
H	1.436015	3.083584	1.306486
H	-0.792084	-9.143623	0.456457
H	0.352973	-9.149441	-0.927480
H	-0.688477	-1.443175	0.832067
$end

$rem
JOBTYPE		SP
EXCHANGE	HF
CORRELATION	pRIMP2
BASIS		cc-pvtz
METHOD		rimp2
AUX_BASIS	rimp2-cc-pvtz
SOLVENT_METHOD	PCM
PURECART	11111
SYMMETRY	false
MEM_TOTAL	110000
SCF_CONVERGENCE = 6
THRESH=10
GUI = 2
$end

$solvent
dielectric 4.90
$end
--------------------------------------------------------------

             Standard Nuclear Orientation (Angstroms)
    I     Atom           X                Y                Z
 ----------------------------------------------------------------
    1      C      -0.2172250000    -8.5177020000    -0.2362260000
    2      C       0.6119390000    -7.6415750000     0.4489210000
    3      S      -1.4137150000    -7.6386340000    -1.2187770000
    4      C       0.3235720000    -6.2647850000     0.2069070000
    5      H       1.4187390000    -7.9660810000     1.1181850000
    6      C      -0.7681560000    -6.0727140000    -0.7112850000
    7      C      -1.2150160000    -4.7870490000    -1.0537250000
    8      C       0.9999170000    -5.1628010000     0.8042580000
    9      C       0.5500330000    -3.8748170000     0.4649080000
   10      C      -0.5410240000    -3.6839520000    -0.4564570000
   11      O       2.0288110000    -5.4997720000     1.6307520000
   12      O      -2.2493570000    -4.4590550000    -1.8830640000
   13      C      -2.5865790000    -5.3290630000    -2.9567540000
   14      H      -3.2628020000    -4.7556940000    -3.6190690000
   15      H      -3.1247110000    -6.2380950000    -2.6094230000
   16      H      -1.6866390000    -5.6372620000    -3.5316670000
   17      C       2.5032510000    -4.5722610000     2.5990730000
   18      H       3.1853560000    -5.1397430000     3.2600970000
   19      H       1.6729370000    -4.1531310000     3.2070340000
   20      H       3.0752130000    -3.7395310000     2.1352140000
   21      C      -0.8281070000    -2.3066540000    -0.6944100000
   22      S       1.1887940000    -2.3065010000     0.9832560000
   23      C       0.0000000000    -1.4351850000     0.0000000000
   24      H      -1.6321850000    -1.9781380000    -1.3648510000
   25      C       0.0000000000     0.0000000000     0.0000000000
   26      S       0.3827990000     0.8197950000     1.5075410000
   27      C       1.0466870000     2.2453250000     0.7188730000
   28      C       0.3829180000     0.8193890000    -1.0678720000
   29      C       0.9683230000     2.0802670000    -0.6864100000
   30      S       0.2825610000     0.5974320000    -2.8055160000
   31      C       1.0178390000     2.1873240000    -3.0545300000
   32      C       1.3149600000     2.8303060000    -1.8625510000
   33      F       1.8754980000     4.0437510000    -1.8190880000
   34      C       1.2088950000     2.5925730000    -4.4560840000
   35      O       0.8907780000     1.8914820000    -5.4065100000
   36      O       1.7728860000     3.8197150000    -4.5692250000
   37      C       1.9868520000     4.2662070000    -5.9162070000
   38      H       2.4458340000     5.2670320000    -5.8330640000
   39      H       1.0281140000     4.3234480000    -6.4701680000
   40      H       2.6610660000     3.5734940000    -6.4592930000
   41      H       1.4360150000     3.0835840000     1.3064860000
   42      H      -0.7920840000    -9.1436230000     0.4564570000
   43      H       0.3529730000    -9.1494410000    -0.9274800000
   44      H      -0.6884770000    -1.4431750000     0.8320670000
 ----------------------------------------------------------------

   11   -2755.3323932888      8.09e-07  Convergence criterion met
 Total energy in the final basis set =    -2755.3323932888
        RIMP2         total energy =     -2760.4233785573 a.u.

                    Orbital Energies (a.u.)
 --------------------------------------------------------------

 Alpha MOs
 -- Occupied --
-92.0164 -91.9996 -91.9777 -91.9572 -26.3439 -20.6152 -20.5866 -20.5863
-20.5617 -11.4099 -11.3832 -11.3140 -11.3086 -11.3059 -11.3006 -11.2984
-11.2967 -11.2891 -11.2856 -11.2844 -11.2826 -11.2821 -11.2782 -11.2728
-11.2716 -11.2574 -11.2562 -11.2487 -11.2346  -9.0153  -8.9997  -8.9800
 -8.9599  -6.6960  -6.6955  -6.6949  -6.6807  -6.6799  -6.6788  -6.6610
 -6.6601  -6.6588  -6.6411  -6.6402  -6.6391  -1.6610  -1.4677  -1.4098
 -1.4083  -1.3704  -1.2301  -1.2023  -1.1728  -1.1383  -1.0991  -1.0456
 -1.0449  -1.0250  -1.0035  -0.9964  -0.9632  -0.9592  -0.9478  -0.9402
 -0.8932  -0.8691  -0.8655  -0.8129  -0.7995  -0.7887  -0.7839  -0.7668
 -0.7570  -0.7374  -0.7258  -0.7164  -0.6974  -0.6868  -0.6848  -0.6796
 -0.6742  -0.6606  -0.6558  -0.6481  -0.6349  -0.6305  -0.6190  -0.6144
 -0.6118  -0.5997  -0.5917  -0.5754  -0.5713  -0.5642  -0.5578  -0.5529
 -0.5459  -0.5336  -0.5310  -0.5276  -0.5131  -0.5079  -0.5072  -0.5007
 -0.4848  -0.4818  -0.4756  -0.4748  -0.4729  -0.4689  -0.4591  -0.4454
 -0.4267  -0.3964  -0.3851  -0.3692  -0.3511  -0.3016  -0.2882  -0.2179

          Ground-State Mulliken Net Atomic Charges

     Atom                 Charge (a.u.)
  ----------------------------------------
      1 C                    -0.069751
      2 C                    -0.267107
      3 S                    -0.137386
      4 C                    -0.042243
      5 H                     0.192509
      6 C                    -0.052444
      7 C                     0.221772
      8 C                     0.220559
      9 C                    -0.076517
     10 C                    -0.049571
     11 O                    -0.335072
     12 O                    -0.343693
     13 C                    -0.082602
     14 H                     0.120239
     15 H                     0.091768
     16 H                     0.093148
     17 C                    -0.087193
     18 H                     0.123267
     19 H                     0.091537
     20 H                     0.089952
     21 C                    -0.261546
     22 S                    -0.073343
     23 C                     0.046749
     24 H                     0.210433
     25 C                    -0.102931
     26 S                     0.082503
     27 C                    -0.171237
     28 C                     0.052254
     29 C                    -0.113515
     30 S                     0.011979
     31 C                    -0.155959
     32 C                     0.399189
     33 F                    -0.206590
     34 C                     0.445029
     35 O                    -0.460586
     36 O                    -0.300885
     37 C                    -0.058452
     38 H                     0.121453
     39 H                     0.095152
     40 H                     0.095294
     41 H                     0.218964
     42 H                     0.116305
     43 H                     0.114199
     44 H                     0.194369
  ----------------------------------------
  Sum of atomic charges =     0.000000

                    Cartesian Multipole Moments
 -----------------------------------------------------------------
    Charge (ESU x 10^10)
                 0.0000
    Dipole Moment (Debye)
         X       0.9720      Y       3.2649      Z       3.4194
       Tot       4.8267
    Quadrupole Moments (Debye-Ang)
        XX    -194.1351     XY       3.5549     YY    -180.6962
        XZ       5.0574     YZ      -9.0622     ZZ    -192.3110

 Total job time:  337.12s(wall), 10521.26s(cpu)
        *  Thank you very much for using Q-Chem.  Have a nice day.  *
