 Q-Chem 5.4, Q-Chem, Inc., Pleasanton, CA (2021)
 Q-Chem 5.4.0 for Intel X86 EM64T Linux

User input:
--------------------------------------------------------------
$molecule
0 1
C	0.014560	-8.517702	0.320589
C	-0.180211	-7.641575	-0.737240
S	0.299553	-7.638634	1.842356
C	-0.114873	-6.264785	-0.366488
H	-0.368061	-7.966081	-1.768528
C	0.131236	-6.072714	1.038637
C	0.253435	-4.787049	1.588197
C	-0.249014	-5.162801	-1.258831
C	-0.122513	-3.874817	-0.709695
C	0.121043	-3.683952	0.697430
O	-0.505933	-5.499772	-2.553323
O	0.512697	-4.459055	2.888369
C	0.080869	-5.329063	3.927625
H	0.173159	-4.755694	4.869656
H	0.716363	-6.238095	4.007459
H	-0.978072	-5.637262	3.789565
C	-0.246949	-4.572261	-3.600064
H	-0.344574	-5.139743	-4.544887
H	0.779898	-4.153131	-3.532074
H	-0.983261	-3.739531	-3.612378
C	0.188009	-2.306654	1.064246
S	-0.278644	-2.306501	-1.517360
C	-0.000000	-1.435185	-0.000000
H	0.373017	-1.978138	2.094685
C	0.000000	0.000000	0.000000
S	0.581934	0.692785	1.507541
C	1.592155	1.897915	0.718873
C	0.581944	0.692363	-1.067872
C	1.473741	1.758764	-0.686410
S	0.427560	0.503942	-2.805516
C	1.549278	1.849357	-3.054530
C	2.002690	2.393529	-1.862551
F	2.858191	3.420549	-1.819088
C	1.838710	2.191348	-4.456084
O	1.349977	1.596481	-5.406510
O	2.701091	3.230705	-4.569225
C	3.023327	3.606605	-5.916207
H	3.725703	4.454534	-5.833064
H	2.112072	3.910035	-6.470168
H	3.495281	2.762996	-6.459293
H	2.185174	2.606846	1.306486
H	0.900177	-9.143623	0.159475
H	-0.866566	-9.149441	0.483604
H	1.062246	-1.443175	-0.194856
$end

$rem
JOBTYPE		SP
EXCHANGE	HF
CORRELATION	pRIMP2
BASIS		cc-pvtz
METHOD		rimp2
AUX_BASIS	rimp2-cc-pvtz
SOLVENT_METHOD	PCM
PURECART	11111
SYMMETRY	false
MEM_TOTAL	110000
SCF_CONVERGENCE = 6
THRESH=10
GUI = 2
$end

$solvent
dielectric 4.90
$end
--------------------------------------------------------------

             Standard Nuclear Orientation (Angstroms)
    I     Atom           X                Y                Z
 ----------------------------------------------------------------
    1      C       0.0145600000    -8.5177020000     0.3205890000
    2      C      -0.1802110000    -7.6415750000    -0.7372400000
    3      S       0.2995530000    -7.6386340000     1.8423560000
    4      C      -0.1148730000    -6.2647850000    -0.3664880000
    5      H      -0.3680610000    -7.9660810000    -1.7685280000
    6      C       0.1312360000    -6.0727140000     1.0386370000
    7      C       0.2534350000    -4.7870490000     1.5881970000
    8      C      -0.2490140000    -5.1628010000    -1.2588310000
    9      C      -0.1225130000    -3.8748170000    -0.7096950000
   10      C       0.1210430000    -3.6839520000     0.6974300000
   11      O      -0.5059330000    -5.4997720000    -2.5533230000
   12      O       0.5126970000    -4.4590550000     2.8883690000
   13      C       0.0808690000    -5.3290630000     3.9276250000
   14      H       0.1731590000    -4.7556940000     4.8696560000
   15      H       0.7163630000    -6.2380950000     4.0074590000
   16      H      -0.9780720000    -5.6372620000     3.7895650000
   17      C      -0.2469490000    -4.5722610000    -3.6000640000
   18      H      -0.3445740000    -5.1397430000    -4.5448870000
   19      H       0.7798980000    -4.1531310000    -3.5320740000
   20      H      -0.9832610000    -3.7395310000    -3.6123780000
   21      C       0.1880090000    -2.3066540000     1.0642460000
   22      S      -0.2786440000    -2.3065010000    -1.5173600000
   23      C       0.0000000000    -1.4351850000     0.0000000000
   24      H       0.3730170000    -1.9781380000     2.0946850000
   25      C       0.0000000000     0.0000000000     0.0000000000
   26      S       0.5819340000     0.6927850000     1.5075410000
   27      C       1.5921550000     1.8979150000     0.7188730000
   28      C       0.5819440000     0.6923630000    -1.0678720000
   29      C       1.4737410000     1.7587640000    -0.6864100000
   30      S       0.4275600000     0.5039420000    -2.8055160000
   31      C       1.5492780000     1.8493570000    -3.0545300000
   32      C       2.0026900000     2.3935290000    -1.8625510000
   33      F       2.8581910000     3.4205490000    -1.8190880000
   34      C       1.8387100000     2.1913480000    -4.4560840000
   35      O       1.3499770000     1.5964810000    -5.4065100000
   36      O       2.7010910000     3.2307050000    -4.5692250000
   37      C       3.0233270000     3.6066050000    -5.9162070000
   38      H       3.7257030000     4.4545340000    -5.8330640000
   39      H       2.1120720000     3.9100350000    -6.4701680000
   40      H       3.4952810000     2.7629960000    -6.4592930000
   41      H       2.1851740000     2.6068460000     1.3064860000
   42      H       0.9001770000    -9.1436230000     0.1594750000
   43      H      -0.8665660000    -9.1494410000     0.4836040000
   44      H       1.0622460000    -1.4431750000    -0.1948560000
 ----------------------------------------------------------------

   11   -2755.3108590747      7.72e-07  Convergence criterion met
 Total energy in the final basis set =    -2755.3108590747
        RIMP2         total energy =     -2760.4121024547 a.u.

                    Orbital Energies (a.u.)
 --------------------------------------------------------------

 Alpha MOs
 -- Occupied --
-92.0136 -91.9989 -91.9764 -91.9586 -26.3431 -20.6153 -20.5876 -20.5869
-20.5618 -11.4099 -11.3818 -11.3097 -11.3092 -11.3079 -11.3013 -11.2980
-11.2975 -11.2892 -11.2865 -11.2838 -11.2834 -11.2832 -11.2822 -11.2733
-11.2715 -11.2584 -11.2584 -11.2500 -11.2375  -9.0128  -8.9991  -8.9791
 -8.9612  -6.6935  -6.6929  -6.6924  -6.6800  -6.6793  -6.6782  -6.6602
 -6.6593  -6.6580  -6.6424  -6.6415  -6.6404  -1.6603  -1.4677  -1.4104
 -1.4092  -1.3704  -1.2360  -1.2011  -1.1742  -1.1392  -1.0998  -1.0485
 -1.0449  -1.0259  -1.0029  -0.9964  -0.9652  -0.9560  -0.9493  -0.9423
 -0.8936  -0.8705  -0.8615  -0.8174  -0.7926  -0.7890  -0.7832  -0.7686
 -0.7571  -0.7367  -0.7253  -0.7108  -0.6971  -0.6953  -0.6851  -0.6818
 -0.6743  -0.6663  -0.6556  -0.6487  -0.6372  -0.6310  -0.6203  -0.6154
 -0.6108  -0.6008  -0.5938  -0.5778  -0.5703  -0.5659  -0.5594  -0.5558
 -0.5478  -0.5330  -0.5300  -0.5258  -0.5162  -0.5114  -0.5078  -0.4998
 -0.4843  -0.4801  -0.4778  -0.4733  -0.4704  -0.4640  -0.4580  -0.4467
 -0.4312  -0.3978  -0.3793  -0.3716  -0.3511  -0.3029  -0.2853  -0.2154

          Ground-State Mulliken Net Atomic Charges

     Atom                 Charge (a.u.)
  ----------------------------------------
      1 C                    -0.070284
      2 C                    -0.257666
      3 S                    -0.135464
      4 C                    -0.045953
      5 H                     0.193915
      6 C                    -0.049224
      7 C                     0.219417
      8 C                     0.226264
      9 C                    -0.064754
     10 C                    -0.039785
     11 O                    -0.334768
     12 O                    -0.344247
     13 C                    -0.082791
     14 H                     0.119813
     15 H                     0.092231
     16 H                     0.093078
     17 C                    -0.088167
     18 H                     0.123891
     19 H                     0.092858
     20 H                     0.090870
     21 C                    -0.293210
     22 S                    -0.103341
     23 C                     0.088058
     24 H                     0.199393
     25 C                    -0.035528
     26 S                     0.081816
     27 C                    -0.196697
     28 C                    -0.016435
     29 C                    -0.106389
     30 S                     0.016937
     31 C                    -0.160819
     32 C                     0.403545
     33 F                    -0.207192
     34 C                     0.446475
     35 O                    -0.460703
     36 O                    -0.300763
     37 C                    -0.058572
     38 H                     0.121496
     39 H                     0.095272
     40 H                     0.095082
     41 H                     0.218158
     42 H                     0.117703
     43 H                     0.115338
     44 H                     0.201141
  ----------------------------------------
  Sum of atomic charges =     0.000000

                    Cartesian Multipole Moments
 -----------------------------------------------------------------
    Charge (ESU x 10^10)
                 0.0000
    Dipole Moment (Debye)
         X       2.3900      Y       1.8716      Z       2.4980
       Tot       3.9313
    Quadrupole Moments (Debye-Ang)
        XX    -195.0219     XY       8.4366     YY    -180.2195
        XZ      -7.8076     YZ      -1.6476     ZZ    -187.4473

 Total job time:  329.07s(wall), 10191.65s(cpu)
        *  Thank you very much for using Q-Chem.  Have a nice day.  *
