 Q-Chem 5.4, Q-Chem, Inc., Pleasanton, CA (2021)
 Q-Chem 5.4.0 for Intel X86 EM64T Linux

User input:
--------------------------------------------------------------
$molecule
0 1
C	0.070009	-8.517702	0.313191
C	-0.305494	-7.641575	-0.694746
S	0.614924	-7.638634	1.762350
C	-0.176768	-6.264785	-0.340973
H	-0.669571	-7.966081	-1.677747
C	0.309600	-6.072714	1.000069
C	0.525372	-4.787049	1.520060
C	-0.463825	-5.162801	-1.196466
C	-0.243888	-3.874817	-0.677639
C	0.240312	-3.683952	0.665815
O	-0.941626	-5.499772	-2.426678
O	1.006468	-4.459055	2.755460
C	0.761666	-5.329063	3.853913
H	1.016135	-4.755694	4.765607
H	1.401368	-6.238095	3.822182
H	-0.305161	-5.637262	3.901833
C	-0.868342	-4.572261	-3.502489
H	-1.128551	-5.139743	-4.416005
H	0.154712	-4.153131	-3.613841
H	-1.595605	-3.739531	-3.386756
C	0.369957	-2.306654	1.015430
S	-0.537898	-2.306501	-1.445922
C	0.000000	-1.435185	0.000000
H	0.731088	-1.978138	1.998088
C	0.000000	0.000000	0.000000
S	0.000474	0.904764	1.507541
C	-0.000295	2.477305	0.718873
C	0.000752	0.904447	-1.067872
C	-0.001560	2.294593	-0.686410
S	0.003602	0.660872	-2.805516
C	-0.001928	2.412546	-3.054530
C	-0.004381	3.120854	-1.862551
F	-0.009185	4.457503	-1.819088
C	-0.000038	2.860570	-4.456084
O	0.007944	2.090724	-5.406510
O	-0.007501	4.211092	-4.569225
C	-0.002278	4.706177	-5.916207
H	-0.009265	5.807207	-5.833064
H	-0.895381	4.352875	-6.470168
H	0.901521	4.363301	-6.459293
H	-0.001708	3.401562	1.306486
H	0.914194	-9.143623	0.000738
H	-0.769424	-9.149441	0.626735
H	1.012272	-1.443175	-0.376353
$end

$rem
JOBTYPE		SP
EXCHANGE	HF
CORRELATION	pRIMP2
BASIS		cc-pvtz
METHOD		rimp2
AUX_BASIS	rimp2-cc-pvtz
SOLVENT_METHOD	PCM
PURECART	11111
SYMMETRY	false
MEM_TOTAL	110000
SCF_CONVERGENCE = 6
THRESH=10
GUI = 2
$end

$solvent
dielectric 4.90
$end
--------------------------------------------------------------

             Standard Nuclear Orientation (Angstroms)
    I     Atom           X                Y                Z
 ----------------------------------------------------------------
    1      C       0.0700090000    -8.5177020000     0.3131910000
    2      C      -0.3054940000    -7.6415750000    -0.6947460000
    3      S       0.6149240000    -7.6386340000     1.7623500000
    4      C      -0.1767680000    -6.2647850000    -0.3409730000
    5      H      -0.6695710000    -7.9660810000    -1.6777470000
    6      C       0.3096000000    -6.0727140000     1.0000690000
    7      C       0.5253720000    -4.7870490000     1.5200600000
    8      C      -0.4638250000    -5.1628010000    -1.1964660000
    9      C      -0.2438880000    -3.8748170000    -0.6776390000
   10      C       0.2403120000    -3.6839520000     0.6658150000
   11      O      -0.9416260000    -5.4997720000    -2.4266780000
   12      O       1.0064680000    -4.4590550000     2.7554600000
   13      C       0.7616660000    -5.3290630000     3.8539130000
   14      H       1.0161350000    -4.7556940000     4.7656070000
   15      H       1.4013680000    -6.2380950000     3.8221820000
   16      H      -0.3051610000    -5.6372620000     3.9018330000
   17      C      -0.8683420000    -4.5722610000    -3.5024890000
   18      H      -1.1285510000    -5.1397430000    -4.4160050000
   19      H       0.1547120000    -4.1531310000    -3.6138410000
   20      H      -1.5956050000    -3.7395310000    -3.3867560000
   21      C       0.3699570000    -2.3066540000     1.0154300000
   22      S      -0.5378980000    -2.3065010000    -1.4459220000
   23      C       0.0000000000    -1.4351850000     0.0000000000
   24      H       0.7310880000    -1.9781380000     1.9980880000
   25      C       0.0000000000     0.0000000000     0.0000000000
   26      S       0.0004740000     0.9047640000     1.5075410000
   27      C      -0.0002950000     2.4773050000     0.7188730000
   28      C       0.0007520000     0.9044470000    -1.0678720000
   29      C      -0.0015600000     2.2945930000    -0.6864100000
   30      S       0.0036020000     0.6608720000    -2.8055160000
   31      C      -0.0019280000     2.4125460000    -3.0545300000
   32      C      -0.0043810000     3.1208540000    -1.8625510000
   33      F      -0.0091850000     4.4575030000    -1.8190880000
   34      C      -0.0000380000     2.8605700000    -4.4560840000
   35      O       0.0079440000     2.0907240000    -5.4065100000
   36      O      -0.0075010000     4.2110920000    -4.5692250000
   37      C      -0.0022780000     4.7061770000    -5.9162070000
   38      H      -0.0092650000     5.8072070000    -5.8330640000
   39      H      -0.8953810000     4.3528750000    -6.4701680000
   40      H       0.9015210000     4.3633010000    -6.4592930000
   41      H      -0.0017080000     3.4015620000     1.3064860000
   42      H       0.9141940000    -9.1436230000     0.0007380000
   43      H      -0.7694240000    -9.1494410000     0.6267350000
   44      H       1.0122720000    -1.4431750000    -0.3763530000
 ----------------------------------------------------------------

   11   -2755.3443432184      8.20e-07  Convergence criterion met
 Total energy in the final basis set =    -2755.3443432184
        RIMP2         total energy =     -2760.4353748800 a.u.

                    Orbital Energies (a.u.)
 --------------------------------------------------------------

 Alpha MOs
 -- Occupied --
-92.0141 -91.9953 -91.9807 -91.9599 -26.3422 -20.6147 -20.5885 -20.5883
-20.5612 -11.4091 -11.3807 -11.3114 -11.3107 -11.3102 -11.2996 -11.2971
-11.2921 -11.2887 -11.2851 -11.2847 -11.2844 -11.2842 -11.2837 -11.2754
-11.2736 -11.2616 -11.2598 -11.2514 -11.2406  -9.0127  -8.9955  -8.9830
 -8.9625  -6.6935  -6.6929  -6.6924  -6.6766  -6.6758  -6.6746  -6.6641
 -6.6633  -6.6619  -6.6437  -6.6428  -6.6418  -1.6593  -1.4671  -1.4119
 -1.4101  -1.3698  -1.2298  -1.2029  -1.1755  -1.1367  -1.1017  -1.0487
 -1.0441  -1.0235  -1.0052  -0.9984  -0.9637  -0.9570  -0.9496  -0.9420
 -0.8950  -0.8704  -0.8650  -0.8152  -0.7922  -0.7905  -0.7851  -0.7700
 -0.7571  -0.7371  -0.7243  -0.7095  -0.6965  -0.6963  -0.6845  -0.6817
 -0.6737  -0.6642  -0.6567  -0.6496  -0.6378  -0.6319  -0.6217  -0.6161
 -0.6113  -0.5995  -0.5934  -0.5766  -0.5713  -0.5661  -0.5602  -0.5569
 -0.5498  -0.5318  -0.5313  -0.5268  -0.5156  -0.5114  -0.5083  -0.5011
 -0.4852  -0.4808  -0.4761  -0.4742  -0.4713  -0.4654  -0.4607  -0.4477
 -0.4322  -0.3972  -0.3847  -0.3721  -0.3500  -0.2992  -0.2877  -0.2189

          Ground-State Mulliken Net Atomic Charges

     Atom                 Charge (a.u.)
  ----------------------------------------
      1 C                    -0.070678
      2 C                    -0.249079
      3 S                    -0.132149
      4 C                    -0.048220
      5 H                     0.194952
      6 C                    -0.050236
      7 C                     0.223281
      8 C                     0.230723
      9 C                    -0.071928
     10 C                    -0.040091
     11 O                    -0.333990
     12 O                    -0.344057
     13 C                    -0.082737
     14 H                     0.120160
     15 H                     0.092325
     16 H                     0.093098
     17 C                    -0.088955
     18 H                     0.124596
     19 H                     0.093948
     20 H                     0.091218
     21 C                    -0.300936
     22 S                    -0.101320
     23 C                     0.142609
     24 H                     0.198055
     25 C                    -0.026268
     26 S                     0.079606
     27 C                    -0.212937
     28 C                    -0.031309
     29 C                    -0.115924
     30 S                    -0.010753
     31 C                    -0.162099
     32 C                     0.404921
     33 F                    -0.208134
     34 C                     0.442970
     35 O                    -0.460722
     36 O                    -0.300416
     37 C                    -0.058858
     38 H                     0.121456
     39 H                     0.095167
     40 H                     0.094987
     41 H                     0.216150
     42 H                     0.118814
     43 H                     0.116513
     44 H                     0.206244
  ----------------------------------------
  Sum of atomic charges =     0.000000

                    Cartesian Multipole Moments
 -----------------------------------------------------------------
    Charge (ESU x 10^10)
                 0.0000
    Dipole Moment (Debye)
         X       0.5177      Y       1.3748      Z       2.5665
       Tot       2.9572
    Quadrupole Moments (Debye-Ang)
        XX    -201.9208     XY       1.4308     YY    -169.3509
        XZ       0.5779     YZ      -3.5666     ZZ    -187.8249

 Total job time:  330.18s(wall), 10975.61s(cpu)
        *  Thank you very much for using Q-Chem.  Have a nice day.  *
