 Q-Chem 5.4, Q-Chem, Inc., Pleasanton, CA (2021)
 Q-Chem 5.4.0 for Intel X86 EM64T Linux

User input:
--------------------------------------------------------------
$molecule
0 1
C	0.284919	-8.517702	0.147685
C	-0.728574	-7.641575	-0.212552
S	1.745304	-7.638634	0.661757
C	-0.374824	-6.264785	-0.083761
H	-1.715621	-7.966081	-0.565513
C	0.965104	-6.072714	0.405665
C	1.502136	-4.787049	0.574617
C	-1.214687	-5.162801	-0.413763
C	-0.675870	-3.874817	-0.248748
C	0.664513	-3.683952	0.243888
O	-2.464209	-5.499772	-0.838511
O	2.757750	-4.459055	1.000176
C	3.441858	-5.329063	1.893778
H	4.303826	-4.755694	2.284868
H	3.828743	-6.238095	1.383341
H	2.792824	-5.637262	2.741817
C	-3.241222	-4.572261	-1.586168
H	-4.108274	-5.139743	-1.974033
H	-2.668916	-4.153131	-2.441448
H	-3.620041	-3.739531	-0.954660
C	1.015668	-2.306654	0.369302
S	-1.453394	-2.306501	-0.517367
C	-0.000000	-1.435185	-0.000000
H	2.000559	-1.978138	0.724300
C	0.000000	0.000000	0.000000
S	0.079327	0.901280	1.507541
C	0.215617	2.467903	0.718873
C	0.079577	0.900940	-1.067872
C	0.198433	2.285998	-0.686410
S	0.061187	0.658044	-2.805516
C	0.208347	2.403534	-3.054530
C	0.267636	3.109360	-1.862551
F	0.379347	4.441341	-1.819088
C	0.249278	2.849688	-4.456084
O	0.190132	2.082076	-5.406510
O	0.359548	4.195721	-4.569225
C	0.407901	4.688467	-5.916207
H	0.496901	5.785916	-5.833064
H	-0.512596	4.414348	-6.470168
H	1.278377	4.268124	-6.459293
H	0.294764	3.388767	1.306486
H	0.588198	-9.143623	-0.699838
H	-0.014470	-9.149441	0.992270
H	0.362373	-1.443175	-1.017360
$end

$rem
JOBTYPE		SP
EXCHANGE	HF
CORRELATION	pRIMP2
BASIS		cc-pvtz
METHOD		rimp2
AUX_BASIS	rimp2-cc-pvtz
SOLVENT_METHOD	PCM
PURECART	11111
SYMMETRY	false
MEM_TOTAL	110000
SCF_CONVERGENCE = 6
THRESH=10
GUI = 2
$end

$solvent
dielectric 4.90
$end
--------------------------------------------------------------

             Standard Nuclear Orientation (Angstroms)
    I     Atom           X                Y                Z
 ----------------------------------------------------------------
    1      C       0.2849190000    -8.5177020000     0.1476850000
    2      C      -0.7285740000    -7.6415750000    -0.2125520000
    3      S       1.7453040000    -7.6386340000     0.6617570000
    4      C      -0.3748240000    -6.2647850000    -0.0837610000
    5      H      -1.7156210000    -7.9660810000    -0.5655130000
    6      C       0.9651040000    -6.0727140000     0.4056650000
    7      C       1.5021360000    -4.7870490000     0.5746170000
    8      C      -1.2146870000    -5.1628010000    -0.4137630000
    9      C      -0.6758700000    -3.8748170000    -0.2487480000
   10      C       0.6645130000    -3.6839520000     0.2438880000
   11      O      -2.4642090000    -5.4997720000    -0.8385110000
   12      O       2.7577500000    -4.4590550000     1.0001760000
   13      C       3.4418580000    -5.3290630000     1.8937780000
   14      H       4.3038260000    -4.7556940000     2.2848680000
   15      H       3.8287430000    -6.2380950000     1.3833410000
   16      H       2.7928240000    -5.6372620000     2.7418170000
   17      C      -3.2412220000    -4.5722610000    -1.5861680000
   18      H      -4.1082740000    -5.1397430000    -1.9740330000
   19      H      -2.6689160000    -4.1531310000    -2.4414480000
   20      H      -3.6200410000    -3.7395310000    -0.9546600000
   21      C       1.0156680000    -2.3066540000     0.3693020000
   22      S      -1.4533940000    -2.3065010000    -0.5173670000
   23      C       0.0000000000    -1.4351850000     0.0000000000
   24      H       2.0005590000    -1.9781380000     0.7243000000
   25      C       0.0000000000     0.0000000000     0.0000000000
   26      S       0.0793270000     0.9012800000     1.5075410000
   27      C       0.2156170000     2.4679030000     0.7188730000
   28      C       0.0795770000     0.9009400000    -1.0678720000
   29      C       0.1984330000     2.2859980000    -0.6864100000
   30      S       0.0611870000     0.6580440000    -2.8055160000
   31      C       0.2083470000     2.4035340000    -3.0545300000
   32      C       0.2676360000     3.1093600000    -1.8625510000
   33      F       0.3793470000     4.4413410000    -1.8190880000
   34      C       0.2492780000     2.8496880000    -4.4560840000
   35      O       0.1901320000     2.0820760000    -5.4065100000
   36      O       0.3595480000     4.1957210000    -4.5692250000
   37      C       0.4079010000     4.6884670000    -5.9162070000
   38      H       0.4969010000     5.7859160000    -5.8330640000
   39      H      -0.5125960000     4.4143480000    -6.4701680000
   40      H       1.2783770000     4.2681240000    -6.4592930000
   41      H       0.2947640000     3.3887670000     1.3064860000
   42      H       0.5881980000    -9.1436230000    -0.6998380000
   43      H      -0.0144700000    -9.1494410000     0.9922700000
   44      H       0.3623730000    -1.4431750000    -1.0173600000
 ----------------------------------------------------------------

   11   -2755.3478885056      6.98e-07  Convergence criterion met
 Total energy in the final basis set =    -2755.3478885056
        RIMP2         total energy =     -2760.4360805185 a.u.

                    Orbital Energies (a.u.)
 --------------------------------------------------------------

 Alpha MOs
 -- Occupied --
-92.0122 -91.9999 -91.9763 -91.9585 -26.3443 -20.6153 -20.5873 -20.5867
-20.5618 -11.4100 -11.3839 -11.3103 -11.3091 -11.3071 -11.3032 -11.3020
-11.2986 -11.2892 -11.2852 -11.2840 -11.2830 -11.2827 -11.2803 -11.2734
-11.2719 -11.2583 -11.2582 -11.2499 -11.2374  -9.0110  -9.0000  -8.9786
 -8.9611  -6.6918  -6.6912  -6.6907  -6.6811  -6.6803  -6.6792  -6.6597
 -6.6588  -6.6575  -6.6423  -6.6414  -6.6404  -1.6613  -1.4678  -1.4102
 -1.4090  -1.3705  -1.2296  -1.2024  -1.1736  -1.1370  -1.1009  -1.0469
 -1.0452  -1.0236  -1.0036  -0.9970  -0.9632  -0.9580  -0.9486  -0.9415
 -0.8932  -0.8711  -0.8649  -0.8146  -0.7941  -0.7900  -0.7848  -0.7684
 -0.7587  -0.7354  -0.7261  -0.7099  -0.7008  -0.6947  -0.6852  -0.6799
 -0.6743  -0.6650  -0.6554  -0.6485  -0.6346  -0.6307  -0.6202  -0.6150
 -0.6110  -0.5992  -0.5925  -0.5775  -0.5704  -0.5645  -0.5580  -0.5557
 -0.5499  -0.5316  -0.5297  -0.5252  -0.5131  -0.5089  -0.5072  -0.5015
 -0.4859  -0.4804  -0.4768  -0.4744  -0.4724  -0.4670  -0.4603  -0.4460
 -0.4245  -0.3991  -0.3853  -0.3700  -0.3504  -0.3014  -0.2894  -0.2208

          Ground-State Mulliken Net Atomic Charges

     Atom                 Charge (a.u.)
  ----------------------------------------
      1 C                    -0.070377
      2 C                    -0.257931
      3 S                    -0.134631
      4 C                    -0.045173
      5 H                     0.193659
      6 C                    -0.051236
      7 C                     0.223878
      8 C                     0.228882
      9 C                    -0.081926
     10 C                    -0.060504
     11 O                    -0.335362
     12 O                    -0.343570
     13 C                    -0.082683
     14 H                     0.119969
     15 H                     0.092074
     16 H                     0.092693
     17 C                    -0.086778
     18 H                     0.122855
     19 H                     0.093141
     20 H                     0.090160
     21 C                    -0.236162
     22 S                    -0.070624
     23 C                     0.056633
     24 H                     0.207327
     25 C                    -0.077210
     26 S                     0.088277
     27 C                    -0.182088
     28 C                     0.009131
     29 C                    -0.112926
     30 S                     0.001869
     31 C                    -0.158009
     32 C                     0.398879
     33 F                    -0.205888
     34 C                     0.444188
     35 O                    -0.461099
     36 O                    -0.300730
     37 C                    -0.058657
     38 H                     0.121510
     39 H                     0.095260
     40 H                     0.095164
     41 H                     0.217308
     42 H                     0.117666
     43 H                     0.115154
     44 H                     0.187886
  ----------------------------------------
  Sum of atomic charges =     0.000000

                    Cartesian Multipole Moments
 -----------------------------------------------------------------
    Charge (ESU x 10^10)
                -0.0000
    Dipole Moment (Debye)
         X       0.3060      Y       2.7946      Z       2.3756
       Tot       3.6807
    Quadrupole Moments (Debye-Ang)
        XX    -190.6373     XY       4.8932     YY    -173.8430
        XZ       8.4989     YZ      -6.4299     ZZ    -199.0805

 Total job time:  322.41s(wall), 10359.28s(cpu)
        *  Thank you very much for using Q-Chem.  Have a nice day.  *
