 Q-Chem 5.4, Q-Chem, Inc., Pleasanton, CA (2021)
 Q-Chem 5.4.0 for Intel X86 EM64T Linux

User input:
--------------------------------------------------------------
$molecule
0 1
C	0.014560	-8.517702	0.320589
C	-0.180211	-7.641575	-0.737240
S	0.299553	-7.638634	1.842356
C	-0.114873	-6.264785	-0.366488
H	-0.368061	-7.966081	-1.768528
C	0.131236	-6.072714	1.038637
C	0.253435	-4.787049	1.588197
C	-0.249014	-5.162801	-1.258831
C	-0.122513	-3.874817	-0.709695
C	0.121043	-3.683952	0.697430
O	-0.505933	-5.499772	-2.553323
O	0.512697	-4.459055	2.888369
C	0.080869	-5.329063	3.927625
H	0.173159	-4.755694	4.869656
H	0.716363	-6.238095	4.007459
H	-0.978072	-5.637262	3.789565
C	-0.246949	-4.572261	-3.600064
H	-0.344574	-5.139743	-4.544887
H	0.779898	-4.153131	-3.532074
H	-0.983261	-3.739531	-3.612378
C	0.188009	-2.306654	1.064246
S	-0.278644	-2.306501	-1.517360
C	-0.000000	-1.435185	-0.000000
H	0.373017	-1.978138	2.094685
C	0.000000	0.000000	0.000000
S	0.157577	0.890937	1.507541
C	0.429889	2.439720	0.718873
C	0.157797	0.890576	-1.067872
C	0.396915	2.260004	-0.686410
S	0.118307	0.650207	-2.805516
C	0.417036	2.376229	-3.054530
C	0.537616	3.074202	-1.862551
F	0.764992	4.391378	-1.819088
C	0.496696	2.817118	-4.456084
O	0.370874	2.057582	-5.406510
O	0.723861	4.148418	-4.569225
C	0.814976	4.635075	-5.916207
H	0.999286	5.720591	-5.833064
H	-0.125909	4.442226	-6.470168
H	1.645504	4.140465	-6.459293
H	0.588993	3.350182	1.306486
H	0.900177	-9.143623	0.159475
H	-0.866566	-9.149441	0.483604
H	1.062246	-1.443175	-0.194856
$end

$rem
JOBTYPE		SP
EXCHANGE	HF
CORRELATION	pRIMP2
BASIS		cc-pvtz
METHOD		rimp2
AUX_BASIS	rimp2-cc-pvtz
SOLVENT_METHOD	PCM
PURECART	11111
SYMMETRY	false
MEM_TOTAL	110000
SCF_CONVERGENCE = 6
THRESH=10
GUI = 2
$end

$solvent
dielectric 4.90
$end
--------------------------------------------------------------

             Standard Nuclear Orientation (Angstroms)
    I     Atom           X                Y                Z
 ----------------------------------------------------------------
    1      C       0.0145600000    -8.5177020000     0.3205890000
    2      C      -0.1802110000    -7.6415750000    -0.7372400000
    3      S       0.2995530000    -7.6386340000     1.8423560000
    4      C      -0.1148730000    -6.2647850000    -0.3664880000
    5      H      -0.3680610000    -7.9660810000    -1.7685280000
    6      C       0.1312360000    -6.0727140000     1.0386370000
    7      C       0.2534350000    -4.7870490000     1.5881970000
    8      C      -0.2490140000    -5.1628010000    -1.2588310000
    9      C      -0.1225130000    -3.8748170000    -0.7096950000
   10      C       0.1210430000    -3.6839520000     0.6974300000
   11      O      -0.5059330000    -5.4997720000    -2.5533230000
   12      O       0.5126970000    -4.4590550000     2.8883690000
   13      C       0.0808690000    -5.3290630000     3.9276250000
   14      H       0.1731590000    -4.7556940000     4.8696560000
   15      H       0.7163630000    -6.2380950000     4.0074590000
   16      H      -0.9780720000    -5.6372620000     3.7895650000
   17      C      -0.2469490000    -4.5722610000    -3.6000640000
   18      H      -0.3445740000    -5.1397430000    -4.5448870000
   19      H       0.7798980000    -4.1531310000    -3.5320740000
   20      H      -0.9832610000    -3.7395310000    -3.6123780000
   21      C       0.1880090000    -2.3066540000     1.0642460000
   22      S      -0.2786440000    -2.3065010000    -1.5173600000
   23      C       0.0000000000    -1.4351850000     0.0000000000
   24      H       0.3730170000    -1.9781380000     2.0946850000
   25      C       0.0000000000     0.0000000000     0.0000000000
   26      S       0.1575770000     0.8909370000     1.5075410000
   27      C       0.4298890000     2.4397200000     0.7188730000
   28      C       0.1577970000     0.8905760000    -1.0678720000
   29      C       0.3969150000     2.2600040000    -0.6864100000
   30      S       0.1183070000     0.6502070000    -2.8055160000
   31      C       0.4170360000     2.3762290000    -3.0545300000
   32      C       0.5376160000     3.0742020000    -1.8625510000
   33      F       0.7649920000     4.3913780000    -1.8190880000
   34      C       0.4966960000     2.8171180000    -4.4560840000
   35      O       0.3708740000     2.0575820000    -5.4065100000
   36      O       0.7238610000     4.1484180000    -4.5692250000
   37      C       0.8149760000     4.6350750000    -5.9162070000
   38      H       0.9992860000     5.7205910000    -5.8330640000
   39      H      -0.1259090000     4.4422260000    -6.4701680000
   40      H       1.6455040000     4.1404650000    -6.4592930000
   41      H       0.5889930000     3.3501820000     1.3064860000
   42      H       0.9001770000    -9.1436230000     0.1594750000
   43      H      -0.8665660000    -9.1494410000     0.4836040000
   44      H       1.0622460000    -1.4431750000    -0.1948560000
 ----------------------------------------------------------------

   11   -2755.3423618320      8.34e-07  Convergence criterion met
 Total energy in the final basis set =    -2755.3423618320
        RIMP2         total energy =     -2760.4338789264 a.u.

                    Orbital Energies (a.u.)
 --------------------------------------------------------------

 Alpha MOs
 -- Occupied --
-92.0141 -91.9945 -91.9807 -91.9602 -26.3419 -20.6147 -20.5887 -20.5884
-20.5612 -11.4091 -11.3802 -11.3123 -11.3111 -11.3103 -11.2986 -11.2972
-11.2907 -11.2887 -11.2854 -11.2852 -11.2848 -11.2843 -11.2838 -11.2757
-11.2732 -11.2621 -11.2600 -11.2517 -11.2412  -9.0128  -8.9948  -8.9832
 -8.9628  -6.6936  -6.6930  -6.6925  -6.6758  -6.6751  -6.6739  -6.6643
 -6.6634  -6.6621  -6.6440  -6.6431  -6.6420  -1.6590  -1.4671  -1.4121
 -1.4102  -1.3697  -1.2304  -1.2028  -1.1758  -1.1370  -1.1016  -1.0490
 -1.0441  -1.0237  -1.0051  -0.9985  -0.9638  -0.9569  -0.9498  -0.9421
 -0.8952  -0.8700  -0.8650  -0.8153  -0.7922  -0.7906  -0.7850  -0.7703
 -0.7567  -0.7375  -0.7240  -0.7100  -0.6966  -0.6953  -0.6845  -0.6819
 -0.6736  -0.6646  -0.6568  -0.6497  -0.6383  -0.6319  -0.6219  -0.6162
 -0.6113  -0.5997  -0.5935  -0.5764  -0.5715  -0.5666  -0.5605  -0.5563
 -0.5501  -0.5323  -0.5313  -0.5273  -0.5163  -0.5119  -0.5085  -0.5011
 -0.4850  -0.4799  -0.4764  -0.4738  -0.4708  -0.4657  -0.4602  -0.4481
 -0.4328  -0.3983  -0.3835  -0.3727  -0.3503  -0.3002  -0.2865  -0.2185

          Ground-State Mulliken Net Atomic Charges

     Atom                 Charge (a.u.)
  ----------------------------------------
      1 C                    -0.070852
      2 C                    -0.247006
      3 S                    -0.131630
      4 C                    -0.049377
      5 H                     0.195259
      6 C                    -0.049083
      7 C                     0.219991
      8 C                     0.232666
      9 C                    -0.068844
     10 C                    -0.033791
     11 O                    -0.333890
     12 O                    -0.344190
     13 C                    -0.082733
     14 H                     0.120199
     15 H                     0.092272
     16 H                     0.093187
     17 C                    -0.089240
     18 H                     0.124877
     19 H                     0.093895
     20 H                     0.091595
     21 C                    -0.315510
     22 S                    -0.110582
     23 C                     0.136055
     24 H                     0.196973
     25 C                     0.006141
     26 S                     0.073831
     27 C                    -0.219702
     28 C                    -0.034334
     29 C                    -0.117908
     30 S                    -0.012121
     31 C                    -0.164754
     32 C                     0.407313
     33 F                    -0.208141
     34 C                     0.443436
     35 O                    -0.460683
     36 O                    -0.300561
     37 C                    -0.058844
     38 H                     0.121415
     39 H                     0.095186
     40 H                     0.094988
     41 H                     0.216800
     42 H                     0.119129
     43 H                     0.116800
     44 H                     0.211768
  ----------------------------------------
  Sum of atomic charges =     0.000000

                    Cartesian Multipole Moments
 -----------------------------------------------------------------
    Charge (ESU x 10^10)
                 0.0000
    Dipole Moment (Debye)
         X       0.9889      Y       1.1158      Z       2.6417
       Tot       3.0334
    Quadrupole Moments (Debye-Ang)
        XX    -201.0462     XY       3.2463     YY    -168.8172
        XZ      -4.0848     YZ      -3.1855     ZZ    -188.1982

 Total job time:  369.78s(wall), 11335.89s(cpu)
        *  Thank you very much for using Q-Chem.  Have a nice day.  *
