 Q-Chem 5.4, Q-Chem, Inc., Pleasanton, CA (2021)
 Q-Chem 5.4.0 for Intel X86 EM64T Linux

User input:
--------------------------------------------------------------
$molecule
0 1
C	1.438381	-8.395476	0.318247
C	1.278244	-7.534070	-0.757333
S	1.301894	-7.526914	1.866383
C	1.039133	-6.178202	-0.380867
H	1.328769	-7.854673	-1.805573
C	1.004177	-5.989332	1.045647
C	0.805458	-4.718873	1.608077
C	0.870278	-5.088992	-1.282948
C	0.675402	-3.815501	-0.720187
C	0.637837	-3.628315	0.707853
O	0.900992	-5.425746	-2.602386
O	0.777604	-4.390731	2.933517
C	0.332149	-5.352705	3.881999
H	0.160995	-4.800670	4.825744
H	1.092680	-6.141658	4.070972
H	-0.617733	-5.833149	3.562152
C	1.170109	-4.436474	-3.588253
H	1.335544	-4.983539	-4.535674
H	2.081585	-3.850160	-3.342986
H	0.313504	-3.741940	-3.728239
C	0.400889	-2.271550	1.080725
S	0.389762	-2.273357	-1.542694
C	0.249217	-1.413382	0.000000
H	0.347057	-1.947458	2.127635
C	0.000000	0.000000	0.000000
S	0.452792	0.783312	1.507541
C	1.238397	2.145556	0.718873
C	0.452875	0.782898	-1.067872
C	1.145945	1.987956	-0.686410
S	0.333556	0.570531	-2.805516
C	1.204604	2.090290	-3.054530
C	1.556633	2.704929	-1.862551
F	2.220797	3.864903	-1.819088
C	1.430252	2.477345	-4.456084
O	1.052242	1.806648	-5.406510
O	2.099050	3.650663	-4.569225
C	2.351116	4.076808	-5.916207
H	2.895579	5.033821	-5.833064
H	1.401015	4.217390	-6.470168
H	2.962391	3.327969	-6.459293
H	1.699302	2.946693	1.306486
H	2.433535	-8.855580	0.313367
H	0.665647	-9.173214	0.325780
H	1.314143	-1.233719	-0.007439
$end

$rem
JOBTYPE		SP
EXCHANGE	HF
CORRELATION	pRIMP2
BASIS		cc-pvtz
METHOD		rimp2
AUX_BASIS	rimp2-cc-pvtz
SOLVENT_METHOD	PCM
PURECART	11111
SYMMETRY	false
MEM_TOTAL	110000
SCF_CONVERGENCE = 6
THRESH=10
GUI = 2
$end

$solvent
dielectric 4.90
$end
--------------------------------------------------------------

             Standard Nuclear Orientation (Angstroms)
    I     Atom           X                Y                Z
 ----------------------------------------------------------------
    1      C       1.4383810000    -8.3954760000     0.3182470000
    2      C       1.2782440000    -7.5340700000    -0.7573330000
    3      S       1.3018940000    -7.5269140000     1.8663830000
    4      C       1.0391330000    -6.1782020000    -0.3808670000
    5      H       1.3287690000    -7.8546730000    -1.8055730000
    6      C       1.0041770000    -5.9893320000     1.0456470000
    7      C       0.8054580000    -4.7188730000     1.6080770000
    8      C       0.8702780000    -5.0889920000    -1.2829480000
    9      C       0.6754020000    -3.8155010000    -0.7201870000
   10      C       0.6378370000    -3.6283150000     0.7078530000
   11      O       0.9009920000    -5.4257460000    -2.6023860000
   12      O       0.7776040000    -4.3907310000     2.9335170000
   13      C       0.3321490000    -5.3527050000     3.8819990000
   14      H       0.1609950000    -4.8006700000     4.8257440000
   15      H       1.0926800000    -6.1416580000     4.0709720000
   16      H      -0.6177330000    -5.8331490000     3.5621520000
   17      C       1.1701090000    -4.4364740000    -3.5882530000
   18      H       1.3355440000    -4.9835390000    -4.5356740000
   19      H       2.0815850000    -3.8501600000    -3.3429860000
   20      H       0.3135040000    -3.7419400000    -3.7282390000
   21      C       0.4008890000    -2.2715500000     1.0807250000
   22      S       0.3897620000    -2.2733570000    -1.5426940000
   23      C       0.2492170000    -1.4133820000     0.0000000000
   24      H       0.3470570000    -1.9474580000     2.1276350000
   25      C       0.0000000000     0.0000000000     0.0000000000
   26      S       0.4527920000     0.7833120000     1.5075410000
   27      C       1.2383970000     2.1455560000     0.7188730000
   28      C       0.4528750000     0.7828980000    -1.0678720000
   29      C       1.1459450000     1.9879560000    -0.6864100000
   30      S       0.3335560000     0.5705310000    -2.8055160000
   31      C       1.2046040000     2.0902900000    -3.0545300000
   32      C       1.5566330000     2.7049290000    -1.8625510000
   33      F       2.2207970000     3.8649030000    -1.8190880000
   34      C       1.4302520000     2.4773450000    -4.4560840000
   35      O       1.0522420000     1.8066480000    -5.4065100000
   36      O       2.0990500000     3.6506630000    -4.5692250000
   37      C       2.3511160000     4.0768080000    -5.9162070000
   38      H       2.8955790000     5.0338210000    -5.8330640000
   39      H       1.4010150000     4.2173900000    -6.4701680000
   40      H       2.9623910000     3.3279690000    -6.4592930000
   41      H       1.6993020000     2.9466930000     1.3064860000
   42      H       2.4335350000    -8.8555800000     0.3133670000
   43      H       0.6656470000    -9.1732140000     0.3257800000
   44      H       1.3141430000    -1.2337190000    -0.0074390000
 ----------------------------------------------------------------

   11   -2755.3113305488      7.73e-07  Convergence criterion met
 Total energy in the final basis set =    -2755.3113305488
        RIMP2         total energy =     -2760.4122324354 a.u.

                    Orbital Energies (a.u.)
 --------------------------------------------------------------

 Alpha MOs
 -- Occupied --
-92.0119 -91.9977 -91.9763 -91.9590 -26.3429 -20.6152 -20.5876 -20.5873
-20.5618 -11.4098 -11.3816 -11.3097 -11.3092 -11.3086 -11.3015 -11.2980
-11.2970 -11.2891 -11.2863 -11.2839 -11.2833 -11.2828 -11.2821 -11.2739
-11.2705 -11.2591 -11.2587 -11.2505 -11.2387  -9.0113  -8.9980  -8.9790
 -8.9616  -6.6921  -6.6914  -6.6909  -6.6790  -6.6782  -6.6771  -6.6601
 -6.6592  -6.6579  -6.6428  -6.6419  -6.6408  -1.6601  -1.4677  -1.4107
 -1.4094  -1.3704  -1.2357  -1.2010  -1.1746  -1.1392  -1.0998  -1.0486
 -1.0447  -1.0260  -1.0030  -0.9964  -0.9650  -0.9560  -0.9496  -0.9423
 -0.8938  -0.8700  -0.8617  -0.8172  -0.7924  -0.7894  -0.7831  -0.7690
 -0.7568  -0.7370  -0.7251  -0.7116  -0.6957  -0.6954  -0.6850  -0.6818
 -0.6742  -0.6659  -0.6558  -0.6488  -0.6372  -0.6309  -0.6208  -0.6155
 -0.6109  -0.6007  -0.5937  -0.5779  -0.5703  -0.5663  -0.5597  -0.5561
 -0.5470  -0.5333  -0.5305  -0.5258  -0.5165  -0.5117  -0.5079  -0.5002
 -0.4839  -0.4802  -0.4777  -0.4732  -0.4701  -0.4641  -0.4571  -0.4470
 -0.4310  -0.3969  -0.3800  -0.3715  -0.3516  -0.3021  -0.2854  -0.2160

          Ground-State Mulliken Net Atomic Charges

     Atom                 Charge (a.u.)
  ----------------------------------------
      1 C                    -0.070560
      2 C                    -0.254055
      3 S                    -0.134415
      4 C                    -0.048136
      5 H                     0.194281
      6 C                    -0.049302
      7 C                     0.218539
      8 C                     0.228143
      9 C                    -0.067389
     10 C                    -0.033900
     11 O                    -0.334665
     12 O                    -0.344103
     13 C                    -0.082783
     14 H                     0.119909
     15 H                     0.092076
     16 H                     0.093094
     17 C                    -0.088421
     18 H                     0.124206
     19 H                     0.092716
     20 H                     0.091402
     21 C                    -0.306164
     22 S                    -0.104670
     23 C                     0.103908
     24 H                     0.198878
     25 C                    -0.020346
     26 S                     0.076566
     27 C                    -0.198698
     28 C                    -0.039355
     29 C                    -0.098448
     30 S                     0.015970
     31 C                    -0.159852
     32 C                     0.402308
     33 F                    -0.207368
     34 C                     0.446153
     35 O                    -0.460338
     36 O                    -0.300703
     37 C                    -0.058531
     38 H                     0.121520
     39 H                     0.095231
     40 H                     0.095053
     41 H                     0.217979
     42 H                     0.118175
     43 H                     0.115802
     44 H                     0.200292
  ----------------------------------------
  Sum of atomic charges =     0.000000

                    Cartesian Multipole Moments
 -----------------------------------------------------------------
    Charge (ESU x 10^10)
                 0.0000
    Dipole Moment (Debye)
         X       2.1035      Y       2.0185      Z       2.5378
       Tot       3.8651
    Quadrupole Moments (Debye-Ang)
        XX    -195.6752     XY       4.7308     YY    -176.2375
        XZ     -10.2993     YZ      -3.2789     ZZ    -189.0579

 Total job time:  348.16s(wall), 10663.19s(cpu)
        *  Thank you very much for using Q-Chem.  Have a nice day.  *
