 Q-Chem 5.4, Q-Chem, Inc., Pleasanton, CA (2021)
 Q-Chem 5.4.0 for Intel X86 EM64T Linux

User input:
--------------------------------------------------------------
$molecule
0 1
C	0.095966	-8.517702	-0.306235
C	-0.082807	-7.641575	0.754415
S	0.348635	-7.638634	-1.833702
C	-0.017401	-6.264785	0.383675
H	-0.259008	-7.966081	1.787757
C	0.231913	-6.072714	-1.020885
C	0.305044	-4.787049	-1.579097
C	-0.196549	-5.162801	1.268082
C	-0.127606	-3.874817	0.708796
C	0.124792	-3.683952	-0.696769
O	-0.397867	-5.499772	2.572378
O	0.506103	-4.459055	-2.889532
C	1.267335	-5.329063	-3.718420
H	1.502804	-4.755694	-4.635204
H	0.697471	-6.238095	-4.010790
H	2.215194	-5.637262	-3.226506
C	-0.999238	-4.572261	3.467415
H	-1.230649	-5.139743	4.388648
H	-1.940905	-4.153131	3.052323
H	-0.311543	-3.739531	3.730819
C	0.187323	-2.306654	-1.064366
S	-0.257128	-2.306501	1.521154
C	-0.000000	-1.435185	-0.000000
H	0.365903	-1.978138	-2.095939
C	0.000000	0.000000	0.000000
S	0.309893	0.850039	1.507541
C	0.847011	2.328006	0.718873
C	0.310046	0.849645	-1.067872
C	0.783331	2.156746	-0.686410
S	0.229416	0.619785	-2.805516
C	0.823328	2.267711	-3.054530
C	1.063278	2.934142	-1.862551
F	1.515925	4.191824	-1.819088
C	0.978337	2.688069	-4.456084
O	0.722535	1.961921	-5.406510
O	1.433229	3.959697	-4.569225
C	1.607467	4.423139	-5.916207
H	1.977475	5.460158	-5.833064
H	0.647388	4.396602	-6.470168
H	2.339490	3.791823	-6.459293
H	1.161798	3.197007	1.306486
H	-0.791346	-9.143623	-0.457736
H	0.979708	-9.149441	-0.158056
H	-1.064830	-1.443175	-0.180205
$end

$rem
JOBTYPE		SP
EXCHANGE	HF
CORRELATION	pRIMP2
BASIS		cc-pvtz
METHOD		rimp2
AUX_BASIS	rimp2-cc-pvtz
SOLVENT_METHOD	PCM
PURECART	11111
SYMMETRY	false
MEM_TOTAL	110000
SCF_CONVERGENCE = 6
THRESH=10
GUI = 2
$end

$solvent
dielectric 4.90
$end
--------------------------------------------------------------

             Standard Nuclear Orientation (Angstroms)
    I     Atom           X                Y                Z
 ----------------------------------------------------------------
    1      C       0.0959660000    -8.5177020000    -0.3062350000
    2      C      -0.0828070000    -7.6415750000     0.7544150000
    3      S       0.3486350000    -7.6386340000    -1.8337020000
    4      C      -0.0174010000    -6.2647850000     0.3836750000
    5      H      -0.2590080000    -7.9660810000     1.7877570000
    6      C       0.2319130000    -6.0727140000    -1.0208850000
    7      C       0.3050440000    -4.7870490000    -1.5790970000
    8      C      -0.1965490000    -5.1628010000     1.2680820000
    9      C      -0.1276060000    -3.8748170000     0.7087960000
   10      C       0.1247920000    -3.6839520000    -0.6967690000
   11      O      -0.3978670000    -5.4997720000     2.5723780000
   12      O       0.5061030000    -4.4590550000    -2.8895320000
   13      C       1.2673350000    -5.3290630000    -3.7184200000
   14      H       1.5028040000    -4.7556940000    -4.6352040000
   15      H       0.6974710000    -6.2380950000    -4.0107900000
   16      H       2.2151940000    -5.6372620000    -3.2265060000
   17      C      -0.9992380000    -4.5722610000     3.4674150000
   18      H      -1.2306490000    -5.1397430000     4.3886480000
   19      H      -1.9409050000    -4.1531310000     3.0523230000
   20      H      -0.3115430000    -3.7395310000     3.7308190000
   21      C       0.1873230000    -2.3066540000    -1.0643660000
   22      S      -0.2571280000    -2.3065010000     1.5211540000
   23      C       0.0000000000    -1.4351850000     0.0000000000
   24      H       0.3659030000    -1.9781380000    -2.0959390000
   25      C       0.0000000000     0.0000000000     0.0000000000
   26      S       0.3098930000     0.8500390000     1.5075410000
   27      C       0.8470110000     2.3280060000     0.7188730000
   28      C       0.3100460000     0.8496450000    -1.0678720000
   29      C       0.7833310000     2.1567460000    -0.6864100000
   30      S       0.2294160000     0.6197850000    -2.8055160000
   31      C       0.8233280000     2.2677110000    -3.0545300000
   32      C       1.0632780000     2.9341420000    -1.8625510000
   33      F       1.5159250000     4.1918240000    -1.8190880000
   34      C       0.9783370000     2.6880690000    -4.4560840000
   35      O       0.7225350000     1.9619210000    -5.4065100000
   36      O       1.4332290000     3.9596970000    -4.5692250000
   37      C       1.6074670000     4.4231390000    -5.9162070000
   38      H       1.9774750000     5.4601580000    -5.8330640000
   39      H       0.6473880000     4.3966020000    -6.4701680000
   40      H       2.3394900000     3.7918230000    -6.4592930000
   41      H       1.1617980000     3.1970070000     1.3064860000
   42      H      -0.7913460000    -9.1436230000    -0.4577360000
   43      H       0.9797080000    -9.1494410000    -0.1580560000
   44      H      -1.0648300000    -1.4431750000    -0.1802050000
 ----------------------------------------------------------------

   11   -2755.3323909764      8.61e-07  Convergence criterion met
 Total energy in the final basis set =    -2755.3323909764
        RIMP2         total energy =     -2760.4261490429 a.u.

                    Orbital Energies (a.u.)
 --------------------------------------------------------------

 Alpha MOs
 -- Occupied --
-92.0143 -91.9978 -91.9827 -91.9589 -26.3432 -20.6151 -20.5890 -20.5873
-20.5616 -11.4097 -11.3821 -11.3106 -11.3099 -11.3077 -11.3028 -11.2983
-11.2946 -11.2890 -11.2859 -11.2856 -11.2850 -11.2828 -11.2825 -11.2741
-11.2737 -11.2599 -11.2593 -11.2505 -11.2390  -9.0131  -8.9980  -8.9848
 -8.9614  -6.6939  -6.6932  -6.6927  -6.6791  -6.6783  -6.6772  -6.6660
 -6.6651  -6.6638  -6.6427  -6.6417  -6.6407  -1.6602  -1.4675  -1.4122
 -1.4092  -1.3702  -1.2306  -1.2033  -1.1749  -1.1376  -1.1013  -1.0480
 -1.0454  -1.0238  -1.0045  -0.9991  -0.9632  -0.9595  -0.9495  -0.9410
 -0.8955  -0.8708  -0.8648  -0.8094  -0.8018  -0.7904  -0.7843  -0.7685
 -0.7571  -0.7378  -0.7251  -0.7114  -0.6994  -0.6929  -0.6849  -0.6814
 -0.6741  -0.6635  -0.6573  -0.6493  -0.6393  -0.6316  -0.6208  -0.6154
 -0.6122  -0.5986  -0.5937  -0.5774  -0.5713  -0.5655  -0.5600  -0.5549
 -0.5455  -0.5358  -0.5310  -0.5288  -0.5139  -0.5097  -0.5086  -0.5016
 -0.4852  -0.4823  -0.4773  -0.4738  -0.4704  -0.4660  -0.4611  -0.4478
 -0.4335  -0.3944  -0.3870  -0.3716  -0.3502  -0.2991  -0.2890  -0.2174

          Ground-State Mulliken Net Atomic Charges

     Atom                 Charge (a.u.)
  ----------------------------------------
      1 C                    -0.070520
      2 C                    -0.255471
      3 S                    -0.133970
      4 C                    -0.049561
      5 H                     0.194033
      6 C                    -0.050273
      7 C                     0.224797
      8 C                     0.233198
      9 C                    -0.074074
     10 C                    -0.037178
     11 O                    -0.333739
     12 O                    -0.343982
     13 C                    -0.083350
     14 H                     0.121326
     15 H                     0.092581
     16 H                     0.092861
     17 C                    -0.088784
     18 H                     0.125075
     19 H                     0.093233
     20 H                     0.090112
     21 C                    -0.311655
     22 S                    -0.098208
     23 C                     0.126510
     24 H                     0.197378
     25 C                    -0.027391
     26 S                     0.087291
     27 C                    -0.221365
     28 C                    -0.029999
     29 C                    -0.098203
     30 S                    -0.001086
     31 C                    -0.164758
     32 C                     0.410021
     33 F                    -0.206884
     34 C                     0.443486
     35 O                    -0.460777
     36 O                    -0.300705
     37 C                    -0.058507
     38 H                     0.121542
     39 H                     0.095160
     40 H                     0.095169
     41 H                     0.217039
     42 H                     0.118099
     43 H                     0.115798
     44 H                     0.205733
  ----------------------------------------
  Sum of atomic charges =     0.000000

                    Cartesian Multipole Moments
 -----------------------------------------------------------------
    Charge (ESU x 10^10)
                -0.0000
    Dipole Moment (Debye)
         X       0.1511      Y       1.7862      Z       3.1335
       Tot       3.6100
    Quadrupole Moments (Debye-Ang)
        XX    -195.7492     XY       5.7321     YY    -173.3630
        XZ     -10.5634     YZ     -11.4422     ZZ    -192.0036

 Total job time:  360.45s(wall), 11128.31s(cpu)
        *  Thank you very much for using Q-Chem.  Have a nice day.  *
