 Q-Chem 5.4, Q-Chem, Inc., Pleasanton, CA (2021)
 Q-Chem 5.4.0 for Intel X86 EM64T Linux

User input:
--------------------------------------------------------------
$molecule
0 1
C	-0.095966	-8.517702	0.306235
C	0.082807	-7.641575	-0.754415
S	-0.348635	-7.638634	1.833702
C	0.017401	-6.264785	-0.383675
H	0.259008	-7.966081	-1.787757
C	-0.231913	-6.072714	1.020885
C	-0.305044	-4.787049	1.579097
C	0.196549	-5.162801	-1.268082
C	0.127606	-3.874817	-0.708796
C	-0.124792	-3.683952	0.696769
O	0.397867	-5.499772	-2.572378
O	-0.506103	-4.459055	2.889532
C	-1.267335	-5.329063	3.718420
H	-1.502804	-4.755694	4.635204
H	-0.697471	-6.238095	4.010790
H	-2.215194	-5.637262	3.226506
C	0.999238	-4.572261	-3.467415
H	1.230649	-5.139743	-4.388648
H	1.940905	-4.153131	-3.052323
H	0.311543	-3.739531	-3.730819
C	-0.187323	-2.306654	1.064366
S	0.257128	-2.306501	-1.521154
C	-0.000000	-1.435185	-0.000000
H	-0.365903	-1.978138	2.095939
C	0.000000	0.000000	0.000000
S	0.382799	0.819795	1.507541
C	1.046687	2.245325	0.718873
C	0.382918	0.819389	-1.067872
C	0.968323	2.080267	-0.686410
S	0.282561	0.597432	-2.805516
C	1.017839	2.187324	-3.054530
C	1.314960	2.830306	-1.862551
F	1.875498	4.043751	-1.819088
C	1.208895	2.592573	-4.456084
O	0.890778	1.891482	-5.406510
O	1.772886	3.819715	-4.569225
C	1.986852	4.266207	-5.916207
H	2.445834	5.267032	-5.833064
H	1.028114	4.323448	-6.470168
H	2.661066	3.573494	-6.459293
H	1.436015	3.083584	1.306486
H	0.791346	-9.143623	0.457736
H	-0.979708	-9.149441	0.158056
H	1.064830	-1.443175	0.180205
$end

$rem
JOBTYPE		SP
EXCHANGE	HF
CORRELATION	pRIMP2
BASIS		cc-pvtz
METHOD		rimp2
AUX_BASIS	rimp2-cc-pvtz
SOLVENT_METHOD	PCM
PURECART	11111
SYMMETRY	false
MEM_TOTAL	110000
SCF_CONVERGENCE = 6
THRESH=10
GUI = 2
$end

$solvent
dielectric 4.90
$end
--------------------------------------------------------------

             Standard Nuclear Orientation (Angstroms)
    I     Atom           X                Y                Z
 ----------------------------------------------------------------
    1      C      -0.0959660000    -8.5177020000     0.3062350000
    2      C       0.0828070000    -7.6415750000    -0.7544150000
    3      S      -0.3486350000    -7.6386340000     1.8337020000
    4      C       0.0174010000    -6.2647850000    -0.3836750000
    5      H       0.2590080000    -7.9660810000    -1.7877570000
    6      C      -0.2319130000    -6.0727140000     1.0208850000
    7      C      -0.3050440000    -4.7870490000     1.5790970000
    8      C       0.1965490000    -5.1628010000    -1.2680820000
    9      C       0.1276060000    -3.8748170000    -0.7087960000
   10      C      -0.1247920000    -3.6839520000     0.6967690000
   11      O       0.3978670000    -5.4997720000    -2.5723780000
   12      O      -0.5061030000    -4.4590550000     2.8895320000
   13      C      -1.2673350000    -5.3290630000     3.7184200000
   14      H      -1.5028040000    -4.7556940000     4.6352040000
   15      H      -0.6974710000    -6.2380950000     4.0107900000
   16      H      -2.2151940000    -5.6372620000     3.2265060000
   17      C       0.9992380000    -4.5722610000    -3.4674150000
   18      H       1.2306490000    -5.1397430000    -4.3886480000
   19      H       1.9409050000    -4.1531310000    -3.0523230000
   20      H       0.3115430000    -3.7395310000    -3.7308190000
   21      C      -0.1873230000    -2.3066540000     1.0643660000
   22      S       0.2571280000    -2.3065010000    -1.5211540000
   23      C       0.0000000000    -1.4351850000     0.0000000000
   24      H      -0.3659030000    -1.9781380000     2.0959390000
   25      C       0.0000000000     0.0000000000     0.0000000000
   26      S       0.3827990000     0.8197950000     1.5075410000
   27      C       1.0466870000     2.2453250000     0.7188730000
   28      C       0.3829180000     0.8193890000    -1.0678720000
   29      C       0.9683230000     2.0802670000    -0.6864100000
   30      S       0.2825610000     0.5974320000    -2.8055160000
   31      C       1.0178390000     2.1873240000    -3.0545300000
   32      C       1.3149600000     2.8303060000    -1.8625510000
   33      F       1.8754980000     4.0437510000    -1.8190880000
   34      C       1.2088950000     2.5925730000    -4.4560840000
   35      O       0.8907780000     1.8914820000    -5.4065100000
   36      O       1.7728860000     3.8197150000    -4.5692250000
   37      C       1.9868520000     4.2662070000    -5.9162070000
   38      H       2.4458340000     5.2670320000    -5.8330640000
   39      H       1.0281140000     4.3234480000    -6.4701680000
   40      H       2.6610660000     3.5734940000    -6.4592930000
   41      H       1.4360150000     3.0835840000     1.3064860000
   42      H       0.7913460000    -9.1436230000     0.4577360000
   43      H      -0.9797080000    -9.1494410000     0.1580560000
   44      H       1.0648300000    -1.4431750000     0.1802050000
 ----------------------------------------------------------------

   11   -2755.3326493269      8.30e-07  Convergence criterion met
 Total energy in the final basis set =    -2755.3326493269
        RIMP2         total energy =     -2760.4266026923 a.u.

                    Orbital Energies (a.u.)
 --------------------------------------------------------------

 Alpha MOs
 -- Occupied --
-92.0121 -91.9945 -91.9792 -91.9600 -26.3421 -20.6147 -20.5884 -20.5881
-20.5613 -11.4092 -11.3805 -11.3106 -11.3099 -11.3087 -11.3030 -11.2973
-11.2925 -11.2887 -11.2846 -11.2846 -11.2840 -11.2839 -11.2836 -11.2754
-11.2713 -11.2613 -11.2597 -11.2515 -11.2410  -9.0112  -8.9949  -8.9816
 -8.9626  -6.6921  -6.6915  -6.6909  -6.6759  -6.6751  -6.6739  -6.6627
 -6.6618  -6.6605  -6.6438  -6.6428  -6.6418  -1.6592  -1.4671  -1.4118
 -1.4099  -1.3698  -1.2319  -1.2020  -1.1756  -1.1378  -1.1008  -1.0488
 -1.0442  -1.0245  -1.0043  -0.9976  -0.9639  -0.9566  -0.9498  -0.9421
 -0.8948  -0.8688  -0.8645  -0.8157  -0.7922  -0.7903  -0.7843  -0.7700
 -0.7564  -0.7377  -0.7243  -0.7120  -0.6968  -0.6928  -0.6845  -0.6816
 -0.6737  -0.6647  -0.6565  -0.6494  -0.6380  -0.6312  -0.6217  -0.6161
 -0.6112  -0.5998  -0.5935  -0.5772  -0.5709  -0.5663  -0.5602  -0.5569
 -0.5486  -0.5334  -0.5310  -0.5265  -0.5161  -0.5121  -0.5083  -0.5012
 -0.4845  -0.4786  -0.4774  -0.4733  -0.4700  -0.4658  -0.4586  -0.4481
 -0.4319  -0.3967  -0.3833  -0.3722  -0.3513  -0.2999  -0.2865  -0.2182

          Ground-State Mulliken Net Atomic Charges

     Atom                 Charge (a.u.)
  ----------------------------------------
      1 C                    -0.070853
      2 C                    -0.247957
      3 S                    -0.132084
      4 C                    -0.051589
      5 H                     0.195179
      6 C                    -0.048611
      7 C                     0.217138
      8 C                     0.232448
      9 C                    -0.071565
     10 C                    -0.021507
     11 O                    -0.333991
     12 O                    -0.343879
     13 C                    -0.082740
     14 H                     0.120112
     15 H                     0.092096
     16 H                     0.093192
     17 C                    -0.089516
     18 H                     0.124895
     19 H                     0.093171
     20 H                     0.092162
     21 C                    -0.332634
     22 S                    -0.108659
     23 C                     0.139050
     24 H                     0.198485
     25 C                     0.030011
     26 S                     0.074649
     27 C                    -0.219561
     28 C                    -0.090060
     29 C                    -0.092216
     30 S                     0.000863
     31 C                    -0.162342
     32 C                     0.406571
     33 F                    -0.207896
     34 C                     0.443286
     35 O                    -0.460160
     36 O                    -0.300676
     37 C                    -0.058680
     38 H                     0.121415
     39 H                     0.095217
     40 H                     0.094972
     41 H                     0.216804
     42 H                     0.119035
     43 H                     0.116755
     44 H                     0.209671
  ----------------------------------------
  Sum of atomic charges =     0.000000

                    Cartesian Multipole Moments
 -----------------------------------------------------------------
    Charge (ESU x 10^10)
                -0.0000
    Dipole Moment (Debye)
         X       1.7158      Y       1.1835      Z       2.7599
       Tot       3.4586
    Quadrupole Moments (Debye-Ang)
        XX    -194.8139     XY       5.0463     YY    -171.3403
        XZ     -11.2206     YZ      -2.4780     ZZ    -192.0181

 Total job time:  328.04s(wall), 10758.34s(cpu)
        *  Thank you very much for using Q-Chem.  Have a nice day.  *
