 Q-Chem 5.4, Q-Chem, Inc., Pleasanton, CA (2021)
 Q-Chem 5.4.0 for Intel X86 EM64T Linux

User input:
--------------------------------------------------------------
$molecule
0 1
C	-0.296276	-8.517702	0.123330
C	0.631143	-7.641575	-0.421494
S	-1.628795	-7.638634	0.911611
C	0.305097	-6.264785	-0.233291
H	1.535988	-7.966081	-0.950737
C	-0.931114	-6.072714	0.478557
C	-1.405737	-4.787049	0.781346
C	1.097747	-5.162801	-0.664542
C	0.624993	-3.874817	-0.357854
C	-0.613970	-3.683952	0.352278
O	2.226300	-5.499772	-1.348709
O	-2.538827	-4.459055	1.469658
C	-3.663102	-5.329063	1.419319
H	-4.516756	-4.755694	1.828237
H	-3.520769	-6.238095	2.043793
H	-3.895546	-5.637262	0.377021
C	3.298492	-4.572261	-1.463351
H	4.152945	-5.139743	-1.878237
H	3.585804	-4.153131	-0.475176
H	3.058230	-3.739531	-2.159469
C	-0.935761	-2.306654	0.540664
S	1.330550	-2.306501	-0.780808
C	-0.000000	-1.435185	-0.000000
H	-1.840780	-1.978138	1.066946
C	0.000000	0.000000	0.000000
S	0.079327	0.901280	1.507541
C	0.215617	2.467903	0.718873
C	0.079577	0.900940	-1.067872
C	0.198433	2.285998	-0.686410
S	0.061187	0.658044	-2.805516
C	0.208347	2.403534	-3.054530
C	0.267636	3.109360	-1.862551
F	0.379347	4.441341	-1.819088
C	0.249278	2.849688	-4.456084
O	0.190132	2.082076	-5.406510
O	0.359548	4.195721	-4.569225
C	0.407901	4.688467	-5.916207
H	0.496901	5.785916	-5.833064
H	-0.512596	4.414348	-6.470168
H	1.278377	4.268124	-6.459293
H	0.294764	3.388767	1.306486
H	0.158021	-9.143623	0.900433
H	-0.750822	-9.149441	-0.648903
H	0.546415	-1.443175	0.931540
$end

$rem
JOBTYPE		SP
EXCHANGE	HF
CORRELATION	pRIMP2
BASIS		cc-pvtz
METHOD		rimp2
AUX_BASIS	rimp2-cc-pvtz
SOLVENT_METHOD	PCM
PURECART	11111
SYMMETRY	false
MEM_TOTAL	110000
SCF_CONVERGENCE = 6
THRESH=10
GUI = 2
$end

$solvent
dielectric 4.90
$end
--------------------------------------------------------------

             Standard Nuclear Orientation (Angstroms)
    I     Atom           X                Y                Z
 ----------------------------------------------------------------
    1      C      -0.2962760000    -8.5177020000     0.1233300000
    2      C       0.6311430000    -7.6415750000    -0.4214940000
    3      S      -1.6287950000    -7.6386340000     0.9116110000
    4      C       0.3050970000    -6.2647850000    -0.2332910000
    5      H       1.5359880000    -7.9660810000    -0.9507370000
    6      C      -0.9311140000    -6.0727140000     0.4785570000
    7      C      -1.4057370000    -4.7870490000     0.7813460000
    8      C       1.0977470000    -5.1628010000    -0.6645420000
    9      C       0.6249930000    -3.8748170000    -0.3578540000
   10      C      -0.6139700000    -3.6839520000     0.3522780000
   11      O       2.2263000000    -5.4997720000    -1.3487090000
   12      O      -2.5388270000    -4.4590550000     1.4696580000
   13      C      -3.6631020000    -5.3290630000     1.4193190000
   14      H      -4.5167560000    -4.7556940000     1.8282370000
   15      H      -3.5207690000    -6.2380950000     2.0437930000
   16      H      -3.8955460000    -5.6372620000     0.3770210000
   17      C       3.2984920000    -4.5722610000    -1.4633510000
   18      H       4.1529450000    -5.1397430000    -1.8782370000
   19      H       3.5858040000    -4.1531310000    -0.4751760000
   20      H       3.0582300000    -3.7395310000    -2.1594690000
   21      C      -0.9357610000    -2.3066540000     0.5406640000
   22      S       1.3305500000    -2.3065010000    -0.7808080000
   23      C       0.0000000000    -1.4351850000     0.0000000000
   24      H      -1.8407800000    -1.9781380000     1.0669460000
   25      C       0.0000000000     0.0000000000     0.0000000000
   26      S       0.0793270000     0.9012800000     1.5075410000
   27      C       0.2156170000     2.4679030000     0.7188730000
   28      C       0.0795770000     0.9009400000    -1.0678720000
   29      C       0.1984330000     2.2859980000    -0.6864100000
   30      S       0.0611870000     0.6580440000    -2.8055160000
   31      C       0.2083470000     2.4035340000    -3.0545300000
   32      C       0.2676360000     3.1093600000    -1.8625510000
   33      F       0.3793470000     4.4413410000    -1.8190880000
   34      C       0.2492780000     2.8496880000    -4.4560840000
   35      O       0.1901320000     2.0820760000    -5.4065100000
   36      O       0.3595480000     4.1957210000    -4.5692250000
   37      C       0.4079010000     4.6884670000    -5.9162070000
   38      H       0.4969010000     5.7859160000    -5.8330640000
   39      H      -0.5125960000     4.4143480000    -6.4701680000
   40      H       1.2783770000     4.2681240000    -6.4592930000
   41      H       0.2947640000     3.3887670000     1.3064860000
   42      H       0.1580210000    -9.1436230000     0.9004330000
   43      H      -0.7508220000    -9.1494410000    -0.6489030000
   44      H       0.5464150000    -1.4431750000     0.9315400000
 ----------------------------------------------------------------

   11   -2755.3446751369      7.85e-07  Convergence criterion met
 Total energy in the final basis set =    -2755.3446751369
        RIMP2         total energy =     -2760.4319166280 a.u.

                    Orbital Energies (a.u.)
 --------------------------------------------------------------

 Alpha MOs
 -- Occupied --
-92.0166 -91.9968 -91.9785 -91.9580 -26.3431 -20.6148 -20.5873 -20.5867
-20.5613 -11.4093 -11.3819 -11.3096 -11.3091 -11.3071 -11.3030 -11.2977
-11.2973 -11.2888 -11.2850 -11.2842 -11.2831 -11.2829 -11.2803 -11.2726
-11.2725 -11.2580 -11.2574 -11.2495 -11.2363  -9.0153  -8.9969  -8.9806
 -8.9606  -6.6960  -6.6955  -6.6949  -6.6779  -6.6772  -6.6761  -6.6617
 -6.6608  -6.6595  -6.6419  -6.6409  -6.6399  -1.6602  -1.4672  -1.4102
 -1.4090  -1.3699  -1.2289  -1.2026  -1.1736  -1.1375  -1.0998  -1.0464
 -1.0438  -1.0246  -1.0037  -0.9969  -0.9631  -0.9579  -0.9483  -0.9410
 -0.8933  -0.8681  -0.8668  -0.8147  -0.7957  -0.7895  -0.7845  -0.7681
 -0.7565  -0.7377  -0.7251  -0.7161  -0.6968  -0.6871  -0.6846  -0.6798
 -0.6738  -0.6610  -0.6560  -0.6486  -0.6358  -0.6299  -0.6198  -0.6151
 -0.6107  -0.5991  -0.5920  -0.5768  -0.5712  -0.5637  -0.5594  -0.5567
 -0.5496  -0.5324  -0.5311  -0.5245  -0.5127  -0.5085  -0.5073  -0.5015
 -0.4853  -0.4807  -0.4763  -0.4737  -0.4696  -0.4677  -0.4609  -0.4468
 -0.4260  -0.3977  -0.3856  -0.3699  -0.3515  -0.2996  -0.2895  -0.2199

          Ground-State Mulliken Net Atomic Charges

     Atom                 Charge (a.u.)
  ----------------------------------------
      1 C                    -0.070058
      2 C                    -0.260866
      3 S                    -0.136300
      4 C                    -0.044635
      5 H                     0.193287
      6 C                    -0.051585
      7 C                     0.224252
      8 C                     0.224566
      9 C                    -0.073547
     10 C                    -0.045066
     11 O                    -0.334894
     12 O                    -0.343594
     13 C                    -0.082690
     14 H                     0.119878
     15 H                     0.092008
     16 H                     0.093221
     17 C                    -0.086831
     18 H                     0.123303
     19 H                     0.091973
     20 H                     0.091231
     21 C                    -0.274560
     22 S                    -0.074438
     23 C                     0.099559
     24 H                     0.204645
     25 C                    -0.092724
     26 S                     0.089922
     27 C                    -0.188818
     28 C                     0.005921
     29 C                    -0.112448
     30 S                     0.009084
     31 C                    -0.156223
     32 C                     0.399139
     33 F                    -0.207509
     34 C                     0.444125
     35 O                    -0.460194
     36 O                    -0.300575
     37 C                    -0.058686
     38 H                     0.121315
     39 H                     0.095230
     40 H                     0.095102
     41 H                     0.218558
     42 H                     0.117045
     43 H                     0.114951
     44 H                     0.187929
  ----------------------------------------
  Sum of atomic charges =     0.000000

                    Cartesian Multipole Moments
 -----------------------------------------------------------------
    Charge (ESU x 10^10)
                -0.0000
    Dipole Moment (Debye)
         X       0.6626      Y       2.8822      Z       3.4069
       Tot       4.5115
    Quadrupole Moments (Debye-Ang)
        XX    -183.9349     XY      -1.9879     YY    -175.6554
        XZ      -4.1178     YZ      -5.4282     ZZ    -205.6201

 Total job time:  318.89s(wall), 10293.56s(cpu)
        *  Thank you very much for using Q-Chem.  Have a nice day.  *
