 Q-Chem 5.4, Q-Chem, Inc., Pleasanton, CA (2021)
 Q-Chem 5.4.0 for Intel X86 EM64T Linux

User input:
--------------------------------------------------------------
$molecule
0 1
C	-0.306235	-8.517702	-0.095966
C	0.754415	-7.641575	0.082807
S	-1.833702	-7.638634	-0.348635
C	0.383675	-6.264785	0.017401
H	1.787757	-7.966081	0.259008
C	-1.020885	-6.072714	-0.231913
C	-1.579097	-4.787049	-0.305044
C	1.268082	-5.162801	0.196549
C	0.708796	-3.874817	0.127606
C	-0.696769	-3.683952	-0.124792
O	2.572378	-5.499772	0.397867
O	-2.889532	-4.459055	-0.506103
C	-3.718420	-5.329063	-1.267335
H	-4.635204	-4.755694	-1.502804
H	-4.010790	-6.238095	-0.697471
H	-3.226506	-5.637262	-2.215194
C	3.467415	-4.572261	0.999238
H	4.388648	-5.139743	1.230649
H	3.052323	-4.153131	1.940905
H	3.730819	-3.739531	0.311543
C	-1.064366	-2.306654	-0.187323
S	1.521154	-2.306501	0.257128
C	0.000000	-1.435185	0.000000
H	-2.095939	-1.978138	-0.365903
C	0.000000	0.000000	0.000000
S	0.693394	0.581209	1.507541
C	1.897536	1.592607	0.718873
C	0.693330	0.580791	-1.067872
C	1.756758	1.476132	-0.686410
S	0.508573	0.422041	-2.805516
C	1.846879	1.552232	-3.054530
C	2.387897	2.009402	-1.862551
F	3.408741	2.872264	-1.819088
C	2.191300	1.838768	-4.456084
O	1.606694	1.337806	-5.406510
O	3.221062	2.712584	-4.569225
C	3.603677	3.026817	-5.916207
H	4.442623	3.739898	-5.833064
H	2.758956	3.483875	-6.470168
H	3.921969	2.114070	-6.459293
H	2.604650	2.187790	1.306486
H	-0.457736	-9.143623	0.791346
H	-0.158056	-9.149441	-0.979708
H	-0.180205	-1.443175	1.064830
$end

$rem
JOBTYPE		SP
EXCHANGE	HF
CORRELATION	pRIMP2
BASIS		cc-pvtz
METHOD		rimp2
AUX_BASIS	rimp2-cc-pvtz
SOLVENT_METHOD	PCM
PURECART	11111
SYMMETRY	false
MEM_TOTAL	110000
SCF_CONVERGENCE = 6
THRESH=10
GUI = 2
$end

$solvent
dielectric 4.90
$end
--------------------------------------------------------------

             Standard Nuclear Orientation (Angstroms)
    I     Atom           X                Y                Z
 ----------------------------------------------------------------
    1      C      -0.3062350000    -8.5177020000    -0.0959660000
    2      C       0.7544150000    -7.6415750000     0.0828070000
    3      S      -1.8337020000    -7.6386340000    -0.3486350000
    4      C       0.3836750000    -6.2647850000     0.0174010000
    5      H       1.7877570000    -7.9660810000     0.2590080000
    6      C      -1.0208850000    -6.0727140000    -0.2319130000
    7      C      -1.5790970000    -4.7870490000    -0.3050440000
    8      C       1.2680820000    -5.1628010000     0.1965490000
    9      C       0.7087960000    -3.8748170000     0.1276060000
   10      C      -0.6967690000    -3.6839520000    -0.1247920000
   11      O       2.5723780000    -5.4997720000     0.3978670000
   12      O      -2.8895320000    -4.4590550000    -0.5061030000
   13      C      -3.7184200000    -5.3290630000    -1.2673350000
   14      H      -4.6352040000    -4.7556940000    -1.5028040000
   15      H      -4.0107900000    -6.2380950000    -0.6974710000
   16      H      -3.2265060000    -5.6372620000    -2.2151940000
   17      C       3.4674150000    -4.5722610000     0.9992380000
   18      H       4.3886480000    -5.1397430000     1.2306490000
   19      H       3.0523230000    -4.1531310000     1.9409050000
   20      H       3.7308190000    -3.7395310000     0.3115430000
   21      C      -1.0643660000    -2.3066540000    -0.1873230000
   22      S       1.5211540000    -2.3065010000     0.2571280000
   23      C       0.0000000000    -1.4351850000     0.0000000000
   24      H      -2.0959390000    -1.9781380000    -0.3659030000
   25      C       0.0000000000     0.0000000000     0.0000000000
   26      S       0.6933940000     0.5812090000     1.5075410000
   27      C       1.8975360000     1.5926070000     0.7188730000
   28      C       0.6933300000     0.5807910000    -1.0678720000
   29      C       1.7567580000     1.4761320000    -0.6864100000
   30      S       0.5085730000     0.4220410000    -2.8055160000
   31      C       1.8468790000     1.5522320000    -3.0545300000
   32      C       2.3878970000     2.0094020000    -1.8625510000
   33      F       3.4087410000     2.8722640000    -1.8190880000
   34      C       2.1913000000     1.8387680000    -4.4560840000
   35      O       1.6066940000     1.3378060000    -5.4065100000
   36      O       3.2210620000     2.7125840000    -4.5692250000
   37      C       3.6036770000     3.0268170000    -5.9162070000
   38      H       4.4426230000     3.7398980000    -5.8330640000
   39      H       2.7589560000     3.4838750000    -6.4701680000
   40      H       3.9219690000     2.1140700000    -6.4592930000
   41      H       2.6046500000     2.1877900000     1.3064860000
   42      H      -0.4577360000    -9.1436230000     0.7913460000
   43      H      -0.1580560000    -9.1494410000    -0.9797080000
   44      H      -0.1802050000    -1.4431750000     1.0648300000
 ----------------------------------------------------------------

   11   -2755.2987670090      7.09e-07  Convergence criterion met
 Total energy in the final basis set =    -2755.2987670090
        RIMP2         total energy =     -2760.3959863861 a.u.

                    Orbital Energies (a.u.)
 --------------------------------------------------------------

 Alpha MOs
 -- Occupied --
-92.0149 -92.0071 -91.9714 -91.9554 -26.3460 -20.6156 -20.5858 -20.5845
-20.5620 -11.4105 -11.3865 -11.3305 -11.3134 -11.3072 -11.3030 -11.2987
-11.2894 -11.2875 -11.2832 -11.2816 -11.2805 -11.2759 -11.2736 -11.2689
-11.2685 -11.2557 -11.2509 -11.2470 -11.2313  -9.0144  -9.0069  -8.9741
 -8.9580  -6.6951  -6.6942  -6.6939  -6.6878  -6.6871  -6.6860  -6.6552
 -6.6543  -6.6531  -6.6392  -6.6383  -6.6373  -1.6630  -1.4681  -1.4083
 -1.4072  -1.3708  -1.2371  -1.2001  -1.1714  -1.1407  -1.0971  -1.0483
 -1.0427  -1.0278  -1.0014  -0.9936  -0.9656  -0.9589  -0.9468  -0.9399
 -0.8912  -0.8719  -0.8605  -0.8184  -0.7976  -0.7873  -0.7825  -0.7655
 -0.7576  -0.7379  -0.7277  -0.7181  -0.6960  -0.6881  -0.6854  -0.6780
 -0.6747  -0.6613  -0.6545  -0.6470  -0.6335  -0.6300  -0.6175  -0.6139
 -0.6110  -0.6017  -0.5904  -0.5759  -0.5705  -0.5620  -0.5576  -0.5531
 -0.5369  -0.5325  -0.5313  -0.5244  -0.5120  -0.5090  -0.5057  -0.4989
 -0.4859  -0.4833  -0.4757  -0.4753  -0.4718  -0.4645  -0.4581  -0.4441
 -0.4198  -0.3971  -0.3853  -0.3675  -0.3478  -0.3099  -0.2864  -0.2171

          Ground-State Mulliken Net Atomic Charges

     Atom                 Charge (a.u.)
  ----------------------------------------
      1 C                    -0.069452
      2 C                    -0.275124
      3 S                    -0.141810
      4 C                    -0.041343
      5 H                     0.191232
      6 C                    -0.055865
      7 C                     0.224671
      8 C                     0.221194
      9 C                    -0.073598
     10 C                    -0.054693
     11 O                    -0.335786
     12 O                    -0.343140
     13 C                    -0.082553
     14 H                     0.119496
     15 H                     0.091755
     16 H                     0.092884
     17 C                    -0.086426
     18 H                     0.122678
     19 H                     0.090532
     20 H                     0.089614
     21 C                    -0.265373
     22 S                    -0.087160
     23 C                     0.013650
     24 H                     0.206210
     25 C                    -0.124824
     26 S                     0.103319
     27 C                    -0.135605
     28 C                     0.053204
     29 C                    -0.102677
     30 S                     0.045822
     31 C                    -0.153397
     32 C                     0.395829
     33 F                    -0.204542
     34 C                     0.447574
     35 O                    -0.461740
     36 O                    -0.301267
     37 C                    -0.058229
     38 H                     0.121446
     39 H                     0.095206
     40 H                     0.095462
     41 H                     0.221196
     42 H                     0.114960
     43 H                     0.112880
     44 H                     0.183788
  ----------------------------------------
  Sum of atomic charges =     0.000000

                    Cartesian Multipole Moments
 -----------------------------------------------------------------
    Charge (ESU x 10^10)
                 0.0000
    Dipole Moment (Debye)
         X       2.9540      Y       3.9481      Z       3.1669
       Tot       5.8603
    Quadrupole Moments (Debye-Ang)
        XX    -177.8461     XY       5.6315     YY    -192.9351
        XZ       2.2759     YZ      -5.2164     ZZ    -200.1809

 Total job time:  329.00s(wall), 10715.99s(cpu)
        *  Thank you very much for using Q-Chem.  Have a nice day.  *
