 Q-Chem 5.4, Q-Chem, Inc., Pleasanton, CA (2021)
 Q-Chem 5.4.0 for Intel X86 EM64T Linux

User input:
--------------------------------------------------------------
$molecule
0 1
C	-0.296276	-8.517702	0.123330
C	0.631143	-7.641575	-0.421494
S	-1.628795	-7.638634	0.911611
C	0.305097	-6.264785	-0.233291
H	1.535988	-7.966081	-0.950737
C	-0.931114	-6.072714	0.478557
C	-1.405737	-4.787049	0.781346
C	1.097747	-5.162801	-0.664542
C	0.624993	-3.874817	-0.357854
C	-0.613970	-3.683952	0.352278
O	2.226300	-5.499772	-1.348709
O	-2.538827	-4.459055	1.469658
C	-3.663102	-5.329063	1.419319
H	-4.516756	-4.755694	1.828237
H	-3.520769	-6.238095	2.043793
H	-3.895546	-5.637262	0.377021
C	3.298492	-4.572261	-1.463351
H	4.152945	-5.139743	-1.878237
H	3.585804	-4.153131	-0.475176
H	3.058230	-3.739531	-2.159469
C	-0.935761	-2.306654	0.540664
S	1.330550	-2.306501	-0.780808
C	-0.000000	-1.435185	-0.000000
H	-1.840780	-1.978138	1.066946
C	0.000000	0.000000	0.000000
S	0.382799	0.819795	1.507541
C	1.046687	2.245325	0.718873
C	0.382918	0.819389	-1.067872
C	0.968323	2.080267	-0.686410
S	0.282561	0.597432	-2.805516
C	1.017839	2.187324	-3.054530
C	1.314960	2.830306	-1.862551
F	1.875498	4.043751	-1.819088
C	1.208895	2.592573	-4.456084
O	0.890778	1.891482	-5.406510
O	1.772886	3.819715	-4.569225
C	1.986852	4.266207	-5.916207
H	2.445834	5.267032	-5.833064
H	1.028114	4.323448	-6.470168
H	2.661066	3.573494	-6.459293
H	1.436015	3.083584	1.306486
H	0.158021	-9.143623	0.900433
H	-0.750822	-9.149441	-0.648903
H	0.546415	-1.443175	0.931540
$end

$rem
JOBTYPE		SP
EXCHANGE	HF
CORRELATION	pRIMP2
BASIS		cc-pvtz
METHOD		rimp2
AUX_BASIS	rimp2-cc-pvtz
SOLVENT_METHOD	PCM
PURECART	11111
SYMMETRY	false
MEM_TOTAL	110000
SCF_CONVERGENCE = 6
THRESH=10
GUI = 2
$end

$solvent
dielectric 4.90
$end
--------------------------------------------------------------

             Standard Nuclear Orientation (Angstroms)
    I     Atom           X                Y                Z
 ----------------------------------------------------------------
    1      C      -0.2962760000    -8.5177020000     0.1233300000
    2      C       0.6311430000    -7.6415750000    -0.4214940000
    3      S      -1.6287950000    -7.6386340000     0.9116110000
    4      C       0.3050970000    -6.2647850000    -0.2332910000
    5      H       1.5359880000    -7.9660810000    -0.9507370000
    6      C      -0.9311140000    -6.0727140000     0.4785570000
    7      C      -1.4057370000    -4.7870490000     0.7813460000
    8      C       1.0977470000    -5.1628010000    -0.6645420000
    9      C       0.6249930000    -3.8748170000    -0.3578540000
   10      C      -0.6139700000    -3.6839520000     0.3522780000
   11      O       2.2263000000    -5.4997720000    -1.3487090000
   12      O      -2.5388270000    -4.4590550000     1.4696580000
   13      C      -3.6631020000    -5.3290630000     1.4193190000
   14      H      -4.5167560000    -4.7556940000     1.8282370000
   15      H      -3.5207690000    -6.2380950000     2.0437930000
   16      H      -3.8955460000    -5.6372620000     0.3770210000
   17      C       3.2984920000    -4.5722610000    -1.4633510000
   18      H       4.1529450000    -5.1397430000    -1.8782370000
   19      H       3.5858040000    -4.1531310000    -0.4751760000
   20      H       3.0582300000    -3.7395310000    -2.1594690000
   21      C      -0.9357610000    -2.3066540000     0.5406640000
   22      S       1.3305500000    -2.3065010000    -0.7808080000
   23      C       0.0000000000    -1.4351850000     0.0000000000
   24      H      -1.8407800000    -1.9781380000     1.0669460000
   25      C       0.0000000000     0.0000000000     0.0000000000
   26      S       0.3827990000     0.8197950000     1.5075410000
   27      C       1.0466870000     2.2453250000     0.7188730000
   28      C       0.3829180000     0.8193890000    -1.0678720000
   29      C       0.9683230000     2.0802670000    -0.6864100000
   30      S       0.2825610000     0.5974320000    -2.8055160000
   31      C       1.0178390000     2.1873240000    -3.0545300000
   32      C       1.3149600000     2.8303060000    -1.8625510000
   33      F       1.8754980000     4.0437510000    -1.8190880000
   34      C       1.2088950000     2.5925730000    -4.4560840000
   35      O       0.8907780000     1.8914820000    -5.4065100000
   36      O       1.7728860000     3.8197150000    -4.5692250000
   37      C       1.9868520000     4.2662070000    -5.9162070000
   38      H       2.4458340000     5.2670320000    -5.8330640000
   39      H       1.0281140000     4.3234480000    -6.4701680000
   40      H       2.6610660000     3.5734940000    -6.4592930000
   41      H       1.4360150000     3.0835840000     1.3064860000
   42      H       0.1580210000    -9.1436230000     0.9004330000
   43      H      -0.7508220000    -9.1494410000    -0.6489030000
   44      H       0.5464150000    -1.4431750000     0.9315400000
 ----------------------------------------------------------------

   11   -2755.3327707121      7.78e-07  Convergence criterion met
 Total energy in the final basis set =    -2755.3327707121
        RIMP2         total energy =     -2760.4229525868 a.u.

                    Orbital Energies (a.u.)
 --------------------------------------------------------------

 Alpha MOs
 -- Occupied --
-92.0146 -91.9984 -91.9775 -91.9573 -26.3436 -20.6149 -20.5870 -20.5861
-20.5615 -11.4095 -11.3828 -11.3139 -11.3086 -11.3060 -11.3009 -11.2984
-11.2978 -11.2889 -11.2854 -11.2839 -11.2827 -11.2823 -11.2782 -11.2715
-11.2710 -11.2574 -11.2556 -11.2488 -11.2349  -9.0138  -8.9985  -8.9796
 -8.9599  -6.6945  -6.6939  -6.6933  -6.6795  -6.6787  -6.6776  -6.6607
 -6.6598  -6.6585  -6.6412  -6.6402  -6.6392  -1.6607  -1.4674  -1.4097
 -1.4085  -1.3701  -1.2310  -1.2018  -1.1729  -1.1383  -1.0989  -1.0464
 -1.0439  -1.0254  -1.0031  -0.9958  -0.9637  -0.9577  -0.9480  -0.9408
 -0.8928  -0.8688  -0.8648  -0.8157  -0.7953  -0.7890  -0.7838  -0.7675
 -0.7566  -0.7377  -0.7256  -0.7164  -0.6964  -0.6874  -0.6847  -0.6795
 -0.6740  -0.6613  -0.6556  -0.6482  -0.6355  -0.6297  -0.6192  -0.6148
 -0.6108  -0.5996  -0.5917  -0.5762  -0.5716  -0.5631  -0.5599  -0.5564
 -0.5461  -0.5330  -0.5312  -0.5241  -0.5123  -0.5088  -0.5070  -0.5008
 -0.4851  -0.4811  -0.4759  -0.4738  -0.4689  -0.4677  -0.4600  -0.4462
 -0.4256  -0.3973  -0.3843  -0.3691  -0.3522  -0.3005  -0.2888  -0.2186

          Ground-State Mulliken Net Atomic Charges

     Atom                 Charge (a.u.)
  ----------------------------------------
      1 C                    -0.069806
      2 C                    -0.265330
      3 S                    -0.138053
      4 C                    -0.043862
      5 H                     0.192733
      6 C                    -0.050767
      7 C                     0.219532
      8 C                     0.221819
      9 C                    -0.071030
     10 C                    -0.035337
     11 O                    -0.335021
     12 O                    -0.343582
     13 C                    -0.082648
     14 H                     0.119705
     15 H                     0.091991
     16 H                     0.093143
     17 C                    -0.087607
     18 H                     0.123328
     19 H                     0.091649
     20 H                     0.091078
     21 C                    -0.280472
     22 S                    -0.075757
     23 C                     0.065877
     24 H                     0.204041
     25 C                    -0.028623
     26 S                     0.089068
     27 C                    -0.182097
     28 C                    -0.070380
     29 C                    -0.079800
     30 S                     0.023406
     31 C                    -0.154237
     32 C                     0.395248
     33 F                    -0.206849
     34 C                     0.445118
     35 O                    -0.460384
     36 O                    -0.300928
     37 C                    -0.058464
     38 H                     0.121336
     39 H                     0.095239
     40 H                     0.095140
     41 H                     0.218534
     42 H                     0.116486
     43 H                     0.114361
     44 H                     0.192202
  ----------------------------------------
  Sum of atomic charges =     0.000000

                    Cartesian Multipole Moments
 -----------------------------------------------------------------
    Charge (ESU x 10^10)
                -0.0000
    Dipole Moment (Debye)
         X       1.6740      Y       3.1383      Z       3.3159
       Tot       4.8628
    Quadrupole Moments (Debye-Ang)
        XX    -181.2509     XY       2.9084     YY    -180.6044
        XZ      -6.5823     YZ      -4.7098     ZZ    -205.2921

 Total job time:  324.07s(wall), 10631.99s(cpu)
        *  Thank you very much for using Q-Chem.  Have a nice day.  *
