 Q-Chem 5.4, Q-Chem, Inc., Pleasanton, CA (2021)
 Q-Chem 5.4.0 for Intel X86 EM64T Linux

User input:
--------------------------------------------------------------
$molecule
0 1
C	-0.217225	-8.517702	-0.236226
C	0.611939	-7.641575	0.448921
S	-1.413715	-7.638634	-1.218777
C	0.323572	-6.264785	0.206907
H	1.418739	-7.966081	1.118185
C	-0.768156	-6.072714	-0.711285
C	-1.215016	-4.787049	-1.053725
C	0.999917	-5.162801	0.804258
C	0.550033	-3.874817	0.464908
C	-0.541024	-3.683952	-0.456457
O	2.028811	-5.499772	1.630752
O	-2.249357	-4.459055	-1.883064
C	-2.586579	-5.329063	-2.956754
H	-3.262802	-4.755694	-3.619069
H	-3.124711	-6.238095	-2.609423
H	-1.686639	-5.637262	-3.531667
C	2.503251	-4.572261	2.599073
H	3.185356	-5.139743	3.260097
H	1.672937	-4.153131	3.207034
H	3.075213	-3.739531	2.135214
C	-0.828107	-2.306654	-0.694410
S	1.188794	-2.306501	0.983256
C	0.000000	-1.435185	0.000000
H	-1.632185	-1.978138	-1.364851
C	0.000000	0.000000	0.000000
S	0.000474	0.904764	1.507541
C	-0.000295	2.477305	0.718873
C	0.000752	0.904447	-1.067872
C	-0.001560	2.294593	-0.686410
S	0.003602	0.660872	-2.805516
C	-0.001928	2.412546	-3.054530
C	-0.004381	3.120854	-1.862551
F	-0.009185	4.457503	-1.819088
C	-0.000038	2.860570	-4.456084
O	0.007944	2.090724	-5.406510
O	-0.007501	4.211092	-4.569225
C	-0.002278	4.706177	-5.916207
H	-0.009265	5.807207	-5.833064
H	-0.895381	4.352875	-6.470168
H	0.901521	4.363301	-6.459293
H	-0.001708	3.401562	1.306486
H	-0.792084	-9.143623	0.456457
H	0.352973	-9.149441	-0.927480
H	-0.688477	-1.443175	0.832067
$end

$rem
JOBTYPE		SP
EXCHANGE	HF
CORRELATION	pRIMP2
BASIS		cc-pvtz
METHOD		rimp2
AUX_BASIS	rimp2-cc-pvtz
SOLVENT_METHOD	PCM
PURECART	11111
SYMMETRY	false
MEM_TOTAL	110000
SCF_CONVERGENCE = 6
THRESH=10
GUI = 2
$end

$solvent
dielectric 4.90
$end
--------------------------------------------------------------

             Standard Nuclear Orientation (Angstroms)
    I     Atom           X                Y                Z
 ----------------------------------------------------------------
    1      C      -0.2172250000    -8.5177020000    -0.2362260000
    2      C       0.6119390000    -7.6415750000     0.4489210000
    3      S      -1.4137150000    -7.6386340000    -1.2187770000
    4      C       0.3235720000    -6.2647850000     0.2069070000
    5      H       1.4187390000    -7.9660810000     1.1181850000
    6      C      -0.7681560000    -6.0727140000    -0.7112850000
    7      C      -1.2150160000    -4.7870490000    -1.0537250000
    8      C       0.9999170000    -5.1628010000     0.8042580000
    9      C       0.5500330000    -3.8748170000     0.4649080000
   10      C      -0.5410240000    -3.6839520000    -0.4564570000
   11      O       2.0288110000    -5.4997720000     1.6307520000
   12      O      -2.2493570000    -4.4590550000    -1.8830640000
   13      C      -2.5865790000    -5.3290630000    -2.9567540000
   14      H      -3.2628020000    -4.7556940000    -3.6190690000
   15      H      -3.1247110000    -6.2380950000    -2.6094230000
   16      H      -1.6866390000    -5.6372620000    -3.5316670000
   17      C       2.5032510000    -4.5722610000     2.5990730000
   18      H       3.1853560000    -5.1397430000     3.2600970000
   19      H       1.6729370000    -4.1531310000     3.2070340000
   20      H       3.0752130000    -3.7395310000     2.1352140000
   21      C      -0.8281070000    -2.3066540000    -0.6944100000
   22      S       1.1887940000    -2.3065010000     0.9832560000
   23      C       0.0000000000    -1.4351850000     0.0000000000
   24      H      -1.6321850000    -1.9781380000    -1.3648510000
   25      C       0.0000000000     0.0000000000     0.0000000000
   26      S       0.0004740000     0.9047640000     1.5075410000
   27      C      -0.0002950000     2.4773050000     0.7188730000
   28      C       0.0007520000     0.9044470000    -1.0678720000
   29      C      -0.0015600000     2.2945930000    -0.6864100000
   30      S       0.0036020000     0.6608720000    -2.8055160000
   31      C      -0.0019280000     2.4125460000    -3.0545300000
   32      C      -0.0043810000     3.1208540000    -1.8625510000
   33      F      -0.0091850000     4.4575030000    -1.8190880000
   34      C      -0.0000380000     2.8605700000    -4.4560840000
   35      O       0.0079440000     2.0907240000    -5.4065100000
   36      O      -0.0075010000     4.2110920000    -4.5692250000
   37      C      -0.0022780000     4.7061770000    -5.9162070000
   38      H      -0.0092650000     5.8072070000    -5.8330640000
   39      H      -0.8953810000     4.3528750000    -6.4701680000
   40      H       0.9015210000     4.3633010000    -6.4592930000
   41      H      -0.0017080000     3.4015620000     1.3064860000
   42      H      -0.7920840000    -9.1436230000     0.4564570000
   43      H       0.3529730000    -9.1494410000    -0.9274800000
   44      H      -0.6884770000    -1.4431750000     0.8320670000
 ----------------------------------------------------------------

   11   -2755.3452725698      8.15e-07  Convergence criterion met
 Total energy in the final basis set =    -2755.3452725698
        RIMP2         total energy =     -2760.4326037529 a.u.

                    Orbital Energies (a.u.)
 --------------------------------------------------------------

 Alpha MOs
 -- Occupied --
-92.0159 -91.9969 -91.9785 -91.9583 -26.3432 -20.6150 -20.5874 -20.5870
-20.5616 -11.4096 -11.3822 -11.3092 -11.3085 -11.3078 -11.3044 -11.2981
-11.2966 -11.2890 -11.2849 -11.2848 -11.2837 -11.2824 -11.2809 -11.2732
-11.2730 -11.2585 -11.2584 -11.2498 -11.2371  -9.0147  -8.9971  -8.9808
 -8.9609  -6.6955  -6.6950  -6.6944  -6.6781  -6.6774  -6.6763  -6.6619
 -6.6611  -6.6598  -6.6422  -6.6412  -6.6402  -1.6603  -1.4675  -1.4107
 -1.4089  -1.3702  -1.2289  -1.2029  -1.1740  -1.1376  -1.1001  -1.0464
 -1.0445  -1.0241  -1.0039  -0.9977  -0.9627  -0.9592  -0.9486  -0.9405
 -0.8938  -0.8686  -0.8667  -0.8117  -0.8008  -0.7886  -0.7849  -0.7679
 -0.7566  -0.7379  -0.7252  -0.7162  -0.6980  -0.6864  -0.6847  -0.6800
 -0.6740  -0.6614  -0.6564  -0.6486  -0.6354  -0.6310  -0.6201  -0.6150
 -0.6118  -0.5990  -0.5922  -0.5766  -0.5717  -0.5651  -0.5586  -0.5522
 -0.5497  -0.5332  -0.5309  -0.5280  -0.5136  -0.5079  -0.5070  -0.5016
 -0.4853  -0.4801  -0.4777  -0.4743  -0.4728  -0.4680  -0.4608  -0.4463
 -0.4276  -0.3978  -0.3854  -0.3704  -0.3515  -0.2995  -0.2888  -0.2196

          Ground-State Mulliken Net Atomic Charges

     Atom                 Charge (a.u.)
  ----------------------------------------
      1 C                    -0.070205
      2 C                    -0.259259
      3 S                    -0.134828
      4 C                    -0.044929
      5 H                     0.193481
      6 C                    -0.051957
      7 C                     0.224692
      8 C                     0.227239
      9 C                    -0.078803
     10 C                    -0.062623
     11 O                    -0.334699
     12 O                    -0.343494
     13 C                    -0.082702
     14 H                     0.120531
     15 H                     0.091717
     16 H                     0.093216
     17 C                    -0.087155
     18 H                     0.123441
     19 H                     0.091979
     20 H                     0.090336
     21 C                    -0.252119
     22 S                    -0.078374
     23 C                     0.097314
     24 H                     0.211830
     25 C                    -0.117709
     26 S                     0.084434
     27 C                    -0.188370
     28 C                     0.039942
     29 C                    -0.121465
     30 S                     0.002564
     31 C                    -0.155693
     32 C                     0.400658
     33 F                    -0.207413
     34 C                     0.443849
     35 O                    -0.460510
     36 O                    -0.300462
     37 C                    -0.058675
     38 H                     0.121437
     39 H                     0.095100
     40 H                     0.095226
     41 H                     0.218563
     42 H                     0.117312
     43 H                     0.115248
     44 H                     0.191334
  ----------------------------------------
  Sum of atomic charges =     0.000000

                    Cartesian Multipole Moments
 -----------------------------------------------------------------
    Charge (ESU x 10^10)
                 0.0000
    Dipole Moment (Debye)
         X      -0.3093      Y       2.6638      Z       3.5433
       Tot       4.4437
    Quadrupole Moments (Debye-Ang)
        XX    -197.0042     XY      -2.8764     YY    -174.1025
        XZ       8.2714     YZ      -9.9233     ZZ    -192.7989

 Total job time:  330.54s(wall), 11048.17s(cpu)
        *  Thank you very much for using Q-Chem.  Have a nice day.  *
