 Q-Chem 5.4, Q-Chem, Inc., Pleasanton, CA (2021)
 Q-Chem 5.4.0 for Intel X86 EM64T Linux

User input:
--------------------------------------------------------------
$molecule
0 1
C	0.320589	-8.517702	-0.014560
C	-0.737240	-7.641575	0.180211
S	1.842356	-7.638634	-0.299553
C	-0.366488	-6.264785	0.114873
H	-1.768528	-7.966081	0.368061
C	1.038637	-6.072714	-0.131236
C	1.588197	-4.787049	-0.253435
C	-1.258831	-5.162801	0.249014
C	-0.709695	-3.874817	0.122513
C	0.697430	-3.683952	-0.121043
O	-2.553323	-5.499772	0.505933
O	2.888369	-4.459055	-0.512697
C	3.927625	-5.329063	-0.080869
H	4.869656	-4.755694	-0.173159
H	4.007459	-6.238095	-0.716363
H	3.789565	-5.637262	0.978072
C	-3.600064	-4.572261	0.246949
H	-4.544887	-5.139743	0.344574
H	-3.532074	-4.153131	-0.779898
H	-3.612378	-3.739531	0.983261
C	1.064246	-2.306654	-0.188009
S	-1.517360	-2.306501	0.278644
C	-0.000000	-1.435185	-0.000000
H	2.094685	-1.978138	-0.373017
C	0.000000	0.000000	0.000000
S	0.382799	0.819795	1.507541
C	1.046687	2.245325	0.718873
C	0.382918	0.819389	-1.067872
C	0.968323	2.080267	-0.686410
S	0.282561	0.597432	-2.805516
C	1.017839	2.187324	-3.054530
C	1.314960	2.830306	-1.862551
F	1.875498	4.043751	-1.819088
C	1.208895	2.592573	-4.456084
O	0.890778	1.891482	-5.406510
O	1.772886	3.819715	-4.569225
C	1.986852	4.266207	-5.916207
H	2.445834	5.267032	-5.833064
H	1.028114	4.323448	-6.470168
H	2.661066	3.573494	-6.459293
H	1.436015	3.083584	1.306486
H	0.159475	-9.143623	-0.900177
H	0.483604	-9.149441	0.866566
H	-0.194856	-1.443175	-1.062246
$end

$rem
JOBTYPE		SP
EXCHANGE	HF
CORRELATION	pRIMP2
BASIS		cc-pvtz
METHOD		rimp2
AUX_BASIS	rimp2-cc-pvtz
SOLVENT_METHOD	PCM
PURECART	11111
SYMMETRY	false
MEM_TOTAL	110000
SCF_CONVERGENCE = 6
THRESH=10
GUI = 2
$end

$solvent
dielectric 4.90
$end
--------------------------------------------------------------

             Standard Nuclear Orientation (Angstroms)
    I     Atom           X                Y                Z
 ----------------------------------------------------------------
    1      C       0.3205890000    -8.5177020000    -0.0145600000
    2      C      -0.7372400000    -7.6415750000     0.1802110000
    3      S       1.8423560000    -7.6386340000    -0.2995530000
    4      C      -0.3664880000    -6.2647850000     0.1148730000
    5      H      -1.7685280000    -7.9660810000     0.3680610000
    6      C       1.0386370000    -6.0727140000    -0.1312360000
    7      C       1.5881970000    -4.7870490000    -0.2534350000
    8      C      -1.2588310000    -5.1628010000     0.2490140000
    9      C      -0.7096950000    -3.8748170000     0.1225130000
   10      C       0.6974300000    -3.6839520000    -0.1210430000
   11      O      -2.5533230000    -5.4997720000     0.5059330000
   12      O       2.8883690000    -4.4590550000    -0.5126970000
   13      C       3.9276250000    -5.3290630000    -0.0808690000
   14      H       4.8696560000    -4.7556940000    -0.1731590000
   15      H       4.0074590000    -6.2380950000    -0.7163630000
   16      H       3.7895650000    -5.6372620000     0.9780720000
   17      C      -3.6000640000    -4.5722610000     0.2469490000
   18      H      -4.5448870000    -5.1397430000     0.3445740000
   19      H      -3.5320740000    -4.1531310000    -0.7798980000
   20      H      -3.6123780000    -3.7395310000     0.9832610000
   21      C       1.0642460000    -2.3066540000    -0.1880090000
   22      S      -1.5173600000    -2.3065010000     0.2786440000
   23      C       0.0000000000    -1.4351850000     0.0000000000
   24      H       2.0946850000    -1.9781380000    -0.3730170000
   25      C       0.0000000000     0.0000000000     0.0000000000
   26      S       0.3827990000     0.8197950000     1.5075410000
   27      C       1.0466870000     2.2453250000     0.7188730000
   28      C       0.3829180000     0.8193890000    -1.0678720000
   29      C       0.9683230000     2.0802670000    -0.6864100000
   30      S       0.2825610000     0.5974320000    -2.8055160000
   31      C       1.0178390000     2.1873240000    -3.0545300000
   32      C       1.3149600000     2.8303060000    -1.8625510000
   33      F       1.8754980000     4.0437510000    -1.8190880000
   34      C       1.2088950000     2.5925730000    -4.4560840000
   35      O       0.8907780000     1.8914820000    -5.4065100000
   36      O       1.7728860000     3.8197150000    -4.5692250000
   37      C       1.9868520000     4.2662070000    -5.9162070000
   38      H       2.4458340000     5.2670320000    -5.8330640000
   39      H       1.0281140000     4.3234480000    -6.4701680000
   40      H       2.6610660000     3.5734940000    -6.4592930000
   41      H       1.4360150000     3.0835840000     1.3064860000
   42      H       0.1594750000    -9.1436230000    -0.9001770000
   43      H       0.4836040000    -9.1494410000     0.8665660000
   44      H      -0.1948560000    -1.4431750000    -1.0622460000
 ----------------------------------------------------------------

   11   -2755.3378043272      6.69e-07  Convergence criterion met
 Total energy in the final basis set =    -2755.3378043272
        RIMP2         total energy =     -2760.4280339521 a.u.

                    Orbital Energies (a.u.)
 --------------------------------------------------------------

 Alpha MOs
 -- Occupied --
-92.0107 -92.0023 -91.9744 -91.9579 -26.3452 -20.6156 -20.5869 -20.5861
-20.5620 -11.4104 -11.3851 -11.3160 -11.3086 -11.3078 -11.3059 -11.2991
-11.2960 -11.2894 -11.2861 -11.2837 -11.2826 -11.2816 -11.2787 -11.2725
-11.2712 -11.2576 -11.2572 -11.2493 -11.2362  -9.0098  -9.0023  -8.9767
 -8.9605  -6.6905  -6.6899  -6.6895  -6.6834  -6.6826  -6.6815  -6.6578
 -6.6569  -6.6557  -6.6417  -6.6408  -6.6398  -1.6622  -1.4681  -1.4097
 -1.4085  -1.3708  -1.2312  -1.2018  -1.1729  -1.1377  -1.1004  -1.0473
 -1.0450  -1.0242  -1.0025  -0.9964  -0.9630  -0.9585  -0.9484  -0.9416
 -0.8924  -0.8713  -0.8640  -0.8136  -0.7965  -0.7903  -0.7838  -0.7675
 -0.7592  -0.7349  -0.7269  -0.7109  -0.7009  -0.6945  -0.6855  -0.6795
 -0.6746  -0.6652  -0.6551  -0.6481  -0.6352  -0.6299  -0.6197  -0.6146
 -0.6110  -0.5997  -0.5927  -0.5769  -0.5712  -0.5654  -0.5571  -0.5546
 -0.5484  -0.5317  -0.5273  -0.5254  -0.5126  -0.5091  -0.5067  -0.5011
 -0.4850  -0.4819  -0.4758  -0.4748  -0.4696  -0.4681  -0.4596  -0.4456
 -0.4206  -0.4011  -0.3841  -0.3695  -0.3511  -0.3043  -0.2886  -0.2203

          Ground-State Mulliken Net Atomic Charges

     Atom                 Charge (a.u.)
  ----------------------------------------
      1 C                    -0.070278
      2 C                    -0.261567
      3 S                    -0.135785
      4 C                    -0.044439
      5 H                     0.193208
      6 C                    -0.052601
      7 C                     0.222689
      8 C                     0.228835
      9 C                    -0.084250
     10 C                    -0.042947
     11 O                    -0.335661
     12 O                    -0.343283
     13 C                    -0.082609
     14 H                     0.119850
     15 H                     0.092136
     16 H                     0.092560
     17 C                    -0.086147
     18 H                     0.122666
     19 H                     0.092226
     20 H                     0.090150
     21 C                    -0.253721
     22 S                    -0.074339
     23 C                     0.055727
     24 H                     0.207410
     25 C                    -0.072081
     26 S                     0.087977
     27 C                    -0.172626
     28 C                    -0.021762
     29 C                    -0.091114
     30 S                     0.011675
     31 C                    -0.158374
     32 C                     0.397294
     33 F                    -0.205027
     34 C                     0.446116
     35 O                    -0.461129
     36 O                    -0.301080
     37 C                    -0.058407
     38 H                     0.121541
     39 H                     0.095315
     40 H                     0.095264
     41 H                     0.217944
     42 H                     0.117227
     43 H                     0.114729
     44 H                     0.186692
  ----------------------------------------
  Sum of atomic charges =     0.000000

                    Cartesian Multipole Moments
 -----------------------------------------------------------------
    Charge (ESU x 10^10)
                 0.0000
    Dipole Moment (Debye)
         X       1.1663      Y       3.1140      Z       2.2854
       Tot       4.0349
    Quadrupole Moments (Debye-Ang)
        XX    -181.0593     XY       9.8688     YY    -178.1166
        XZ      -0.2686     YZ      -7.6131     ZZ    -205.6399

 Total job time:  329.06s(wall), 10672.18s(cpu)
        *  Thank you very much for using Q-Chem.  Have a nice day.  *
