 Q-Chem 5.4, Q-Chem, Inc., Pleasanton, CA (2021)
 Q-Chem 5.4.0 for Intel X86 EM64T Linux

User input:
--------------------------------------------------------------
$molecule
0 1
C	0.318247	-8.517702	0.041330
C	-0.757333	-7.641575	0.049453
S	1.866383	-7.638634	0.024919
C	-0.380867	-6.264785	0.049488
H	-1.805573	-7.966081	0.055368
C	1.045647	-6.072714	0.051115
C	1.608077	-4.787049	0.026203
C	-1.282948	-5.162801	0.026637
C	-0.720187	-3.874817	-0.002586
C	0.707853	-3.683952	0.001903
O	-2.602386	-5.499772	0.054867
O	2.933517	-4.459055	-0.003348
C	3.881999	-5.329063	0.602384
H	4.825744	-4.755694	0.675079
H	4.070972	-6.238095	-0.009592
H	3.562152	-5.637262	1.621263
C	-3.588253	-4.572261	-0.381947
H	-4.535674	-5.139743	-0.449872
H	-3.342986	-4.153131	-1.381388
H	-3.728239	-3.739531	0.341040
C	1.080725	-2.306654	-0.000348
S	-1.542694	-2.306501	0.010924
C	-0.000000	-1.435185	-0.000000
H	2.127635	-1.978138	-0.003612
C	0.000000	0.000000	0.000000
S	0.783786	0.451972	1.507541
C	2.145261	1.238908	0.718873
C	0.783650	0.451572	-1.067872
C	1.986396	1.148648	-0.686410
S	0.574133	0.327317	-2.805516
C	2.088363	1.207943	-3.054530
C	2.700548	1.564221	-1.862551
F	3.855718	2.236706	-1.819088
C	2.477307	1.430318	-4.456084
O	1.814592	1.038482	-5.406510
O	3.643162	2.112042	-4.569225
C	4.074530	2.355061	-5.916207
H	5.024556	2.911627	-5.833064
H	3.322010	2.951860	-6.470168
H	4.229490	1.400910	-6.459293
H	2.944986	1.702260	1.306486
H	0.313367	-9.143623	-0.858809
H	0.325780	-9.149441	0.937378
H	-0.007439	-1.443175	-1.079945
$end

$rem
JOBTYPE		SP
EXCHANGE	HF
CORRELATION	pRIMP2
BASIS		cc-pvtz
METHOD		rimp2
AUX_BASIS	rimp2-cc-pvtz
SOLVENT_METHOD	PCM
PURECART	11111
SYMMETRY	false
MEM_TOTAL	110000
SCF_CONVERGENCE = 6
THRESH=10
GUI = 2
$end

$solvent
dielectric 4.90
$end
--------------------------------------------------------------

             Standard Nuclear Orientation (Angstroms)
    I     Atom           X                Y                Z
 ----------------------------------------------------------------
    1      C       0.3182470000    -8.5177020000     0.0413300000
    2      C      -0.7573330000    -7.6415750000     0.0494530000
    3      S       1.8663830000    -7.6386340000     0.0249190000
    4      C      -0.3808670000    -6.2647850000     0.0494880000
    5      H      -1.8055730000    -7.9660810000     0.0553680000
    6      C       1.0456470000    -6.0727140000     0.0511150000
    7      C       1.6080770000    -4.7870490000     0.0262030000
    8      C      -1.2829480000    -5.1628010000     0.0266370000
    9      C      -0.7201870000    -3.8748170000    -0.0025860000
   10      C       0.7078530000    -3.6839520000     0.0019030000
   11      O      -2.6023860000    -5.4997720000     0.0548670000
   12      O       2.9335170000    -4.4590550000    -0.0033480000
   13      C       3.8819990000    -5.3290630000     0.6023840000
   14      H       4.8257440000    -4.7556940000     0.6750790000
   15      H       4.0709720000    -6.2380950000    -0.0095920000
   16      H       3.5621520000    -5.6372620000     1.6212630000
   17      C      -3.5882530000    -4.5722610000    -0.3819470000
   18      H      -4.5356740000    -5.1397430000    -0.4498720000
   19      H      -3.3429860000    -4.1531310000    -1.3813880000
   20      H      -3.7282390000    -3.7395310000     0.3410400000
   21      C       1.0807250000    -2.3066540000    -0.0003480000
   22      S      -1.5426940000    -2.3065010000     0.0109240000
   23      C       0.0000000000    -1.4351850000     0.0000000000
   24      H       2.1276350000    -1.9781380000    -0.0036120000
   25      C       0.0000000000     0.0000000000     0.0000000000
   26      S       0.7837860000     0.4519720000     1.5075410000
   27      C       2.1452610000     1.2389080000     0.7188730000
   28      C       0.7836500000     0.4515720000    -1.0678720000
   29      C       1.9863960000     1.1486480000    -0.6864100000
   30      S       0.5741330000     0.3273170000    -2.8055160000
   31      C       2.0883630000     1.2079430000    -3.0545300000
   32      C       2.7005480000     1.5642210000    -1.8625510000
   33      F       3.8557180000     2.2367060000    -1.8190880000
   34      C       2.4773070000     1.4303180000    -4.4560840000
   35      O       1.8145920000     1.0384820000    -5.4065100000
   36      O       3.6431620000     2.1120420000    -4.5692250000
   37      C       4.0745300000     2.3550610000    -5.9162070000
   38      H       5.0245560000     2.9116270000    -5.8330640000
   39      H       3.3220100000     2.9518600000    -6.4701680000
   40      H       4.2294900000     1.4009100000    -6.4592930000
   41      H       2.9449860000     1.7022600000     1.3064860000
   42      H       0.3133670000    -9.1436230000    -0.8588090000
   43      H       0.3257800000    -9.1494410000     0.9373780000
   44      H      -0.0074390000    -1.4431750000    -1.0799450000
 ----------------------------------------------------------------

   11   -2755.2802136567      7.01e-07  Convergence criterion met
 Total energy in the final basis set =    -2755.2802136567
        RIMP2         total energy =     -2760.3822035825 a.u.

                    Orbital Energies (a.u.)
 --------------------------------------------------------------

 Alpha MOs
 -- Occupied --
-92.0134 -92.0107 -91.9656 -91.9566 -26.3485 -20.6168 -20.5864 -20.5833
-20.5633 -11.4122 -11.3902 -11.3370 -11.3231 -11.3074 -11.3014 -11.3011
-11.2902 -11.2901 -11.2825 -11.2816 -11.2780 -11.2714 -11.2707 -11.2698
-11.2680 -11.2557 -11.2545 -11.2478 -11.2326  -9.0131  -9.0105  -8.9682
 -8.9592  -6.6940  -6.6932  -6.6922  -6.6911  -6.6902  -6.6900  -6.6493
 -6.6484  -6.6472  -6.6404  -6.6395  -6.6385  -1.6654  -1.4694  -1.4085
 -1.4063  -1.3721  -1.2441  -1.1987  -1.1719  -1.1421  -1.0998  -1.0520
 -1.0425  -1.0283  -1.0001  -0.9937  -0.9662  -0.9582  -0.9483  -0.9415
 -0.8900  -0.8748  -0.8585  -0.8188  -0.7982  -0.7894  -0.7812  -0.7663
 -0.7607  -0.7336  -0.7300  -0.7152  -0.7020  -0.6927  -0.6870  -0.6789
 -0.6759  -0.6680  -0.6538  -0.6468  -0.6379  -0.6287  -0.6183  -0.6149
 -0.6099  -0.6028  -0.5928  -0.5761  -0.5710  -0.5646  -0.5555  -0.5546
 -0.5472  -0.5326  -0.5265  -0.5184  -0.5138  -0.5098  -0.5052  -0.4988
 -0.4875  -0.4827  -0.4771  -0.4744  -0.4669  -0.4653  -0.4553  -0.4430
 -0.4158  -0.3968  -0.3809  -0.3684  -0.3499  -0.3164  -0.2854  -0.2170

          Ground-State Mulliken Net Atomic Charges

     Atom                 Charge (a.u.)
  ----------------------------------------
      1 C                    -0.069229
      2 C                    -0.271648
      3 S                    -0.139377
      4 C                    -0.039783
      5 H                     0.192119
      6 C                    -0.051264
      7 C                     0.220677
      8 C                     0.217332
      9 C                    -0.073209
     10 C                    -0.057828
     11 O                    -0.336588
     12 O                    -0.344481
     13 C                    -0.082718
     14 H                     0.118920
     15 H                     0.092192
     16 H                     0.092582
     17 C                    -0.086083
     18 H                     0.121910
     19 H                     0.091096
     20 H                     0.090420
     21 C                    -0.254863
     22 S                    -0.113832
     23 C                     0.065919
     24 H                     0.207897
     25 C                    -0.199081
     26 S                     0.101131
     27 C                    -0.112665
     28 C                     0.068217
     29 C                    -0.118800
     30 S                     0.055853
     31 C                    -0.155559
     32 C                     0.401629
     33 F                    -0.202710
     34 C                     0.448985
     35 O                    -0.461481
     36 O                    -0.301301
     37 C                    -0.058003
     38 H                     0.121789
     39 H                     0.095492
     40 H                     0.095660
     41 H                     0.221546
     42 H                     0.115850
     43 H                     0.113358
     44 H                     0.179929
  ----------------------------------------
  Sum of atomic charges =     0.000000

                    Cartesian Multipole Moments
 -----------------------------------------------------------------
    Charge (ESU x 10^10)
                 0.0000
    Dipole Moment (Debye)
         X       3.8825      Y       3.4416      Z       1.8349
       Tot       5.5032
    Quadrupole Moments (Debye-Ang)
        XX    -172.4034     XY      11.0984     YY    -193.0329
        XZ      -0.8554     YZ      -4.0628     ZZ    -201.9056

 Total job time:  338.93s(wall), 10816.09s(cpu)
        *  Thank you very much for using Q-Chem.  Have a nice day.  *
