 Q-Chem 5.4, Q-Chem, Inc., Pleasanton, CA (2021)
 Q-Chem 5.4.0 for Intel X86 EM64T Linux

User input:
--------------------------------------------------------------
$molecule
0 1
C	-0.318247	-8.517702	-0.041330
C	0.757333	-7.641575	-0.049453
S	-1.866383	-7.638634	-0.024919
C	0.380867	-6.264785	-0.049488
H	1.805573	-7.966081	-0.055368
C	-1.045647	-6.072714	-0.051115
C	-1.608077	-4.787049	-0.026203
C	1.282948	-5.162801	-0.026637
C	0.720187	-3.874817	0.002586
C	-0.707853	-3.683952	-0.001903
O	2.602386	-5.499772	-0.054867
O	-2.933517	-4.459055	0.003348
C	-3.881999	-5.329063	-0.602384
H	-4.825744	-4.755694	-0.675079
H	-4.070972	-6.238095	0.009592
H	-3.562152	-5.637262	-1.621263
C	3.588253	-4.572261	0.381947
H	4.535674	-5.139743	0.449872
H	3.342986	-4.153131	1.381388
H	3.728239	-3.739531	-0.341040
C	-1.080725	-2.306654	0.000348
S	1.542694	-2.306501	-0.010924
C	0.000000	-1.435185	0.000000
H	-2.127635	-1.978138	0.003612
C	0.000000	0.000000	0.000000
S	0.234628	0.873813	1.507541
C	0.640889	2.392969	0.718873
C	0.234815	0.873434	-1.067872
C	0.592377	2.216811	-0.686410
S	0.174526	0.637422	-2.805516
C	0.622551	2.330840	-3.054530
C	0.803505	3.015647	-1.862551
F	1.144815	4.307994	-1.819088
C	0.740334	2.763108	-4.456084
O	0.548793	2.017428	-5.406510
O	1.082665	4.069544	-4.569225
C	1.215848	4.546407	-5.916207
H	1.494066	5.611729	-5.833064
H	0.261736	4.436296	-6.470168
H	2.000108	3.981294	-6.459293
H	0.878739	3.286099	1.306486
H	-0.313367	-9.143623	0.858809
H	-0.325780	-9.149441	-0.937378
H	0.007439	-1.443175	1.079945
$end

$rem
JOBTYPE		SP
EXCHANGE	HF
CORRELATION	pRIMP2
BASIS		cc-pvtz
METHOD		rimp2
AUX_BASIS	rimp2-cc-pvtz
SOLVENT_METHOD	PCM
PURECART	11111
SYMMETRY	false
MEM_TOTAL	110000
SCF_CONVERGENCE = 6
THRESH=10
GUI = 2
$end

$solvent
dielectric 4.90
$end
--------------------------------------------------------------

             Standard Nuclear Orientation (Angstroms)
    I     Atom           X                Y                Z
 ----------------------------------------------------------------
    1      C      -0.3182470000    -8.5177020000    -0.0413300000
    2      C       0.7573330000    -7.6415750000    -0.0494530000
    3      S      -1.8663830000    -7.6386340000    -0.0249190000
    4      C       0.3808670000    -6.2647850000    -0.0494880000
    5      H       1.8055730000    -7.9660810000    -0.0553680000
    6      C      -1.0456470000    -6.0727140000    -0.0511150000
    7      C      -1.6080770000    -4.7870490000    -0.0262030000
    8      C       1.2829480000    -5.1628010000    -0.0266370000
    9      C       0.7201870000    -3.8748170000     0.0025860000
   10      C      -0.7078530000    -3.6839520000    -0.0019030000
   11      O       2.6023860000    -5.4997720000    -0.0548670000
   12      O      -2.9335170000    -4.4590550000     0.0033480000
   13      C      -3.8819990000    -5.3290630000    -0.6023840000
   14      H      -4.8257440000    -4.7556940000    -0.6750790000
   15      H      -4.0709720000    -6.2380950000     0.0095920000
   16      H      -3.5621520000    -5.6372620000    -1.6212630000
   17      C       3.5882530000    -4.5722610000     0.3819470000
   18      H       4.5356740000    -5.1397430000     0.4498720000
   19      H       3.3429860000    -4.1531310000     1.3813880000
   20      H       3.7282390000    -3.7395310000    -0.3410400000
   21      C      -1.0807250000    -2.3066540000     0.0003480000
   22      S       1.5426940000    -2.3065010000    -0.0109240000
   23      C       0.0000000000    -1.4351850000     0.0000000000
   24      H      -2.1276350000    -1.9781380000     0.0036120000
   25      C       0.0000000000     0.0000000000     0.0000000000
   26      S       0.2346280000     0.8738130000     1.5075410000
   27      C       0.6408890000     2.3929690000     0.7188730000
   28      C       0.2348150000     0.8734340000    -1.0678720000
   29      C       0.5923770000     2.2168110000    -0.6864100000
   30      S       0.1745260000     0.6374220000    -2.8055160000
   31      C       0.6225510000     2.3308400000    -3.0545300000
   32      C       0.8035050000     3.0156470000    -1.8625510000
   33      F       1.1448150000     4.3079940000    -1.8190880000
   34      C       0.7403340000     2.7631080000    -4.4560840000
   35      O       0.5487930000     2.0174280000    -5.4065100000
   36      O       1.0826650000     4.0695440000    -4.5692250000
   37      C       1.2158480000     4.5464070000    -5.9162070000
   38      H       1.4940660000     5.6117290000    -5.8330640000
   39      H       0.2617360000     4.4362960000    -6.4701680000
   40      H       2.0001080000     3.9812940000    -6.4592930000
   41      H       0.8787390000     3.2860990000     1.3064860000
   42      H      -0.3133670000    -9.1436230000     0.8588090000
   43      H      -0.3257800000    -9.1494410000    -0.9373780000
   44      H       0.0074390000    -1.4431750000     1.0799450000
 ----------------------------------------------------------------

   11   -2755.3415278906      7.39e-07  Convergence criterion met
 Total energy in the final basis set =    -2755.3415278906
        RIMP2         total energy =     -2760.4290694938 a.u.

                    Orbital Energies (a.u.)
 --------------------------------------------------------------

 Alpha MOs
 -- Occupied --
-92.0176 -91.9989 -91.9764 -91.9573 -26.3437 -20.6150 -20.5868 -20.5861
-20.5615 -11.4096 -11.3828 -11.3133 -11.3085 -11.3059 -11.3003 -11.2980
-11.2971 -11.2890 -11.2853 -11.2840 -11.2825 -11.2822 -11.2784 -11.2716
-11.2715 -11.2574 -11.2557 -11.2489 -11.2351  -9.0162  -8.9989  -8.9786
 -8.9600  -6.6970  -6.6964  -6.6958  -6.6799  -6.6792  -6.6781  -6.6597
 -6.6588  -6.6575  -6.6412  -6.6403  -6.6393  -1.6608  -1.4675  -1.4097
 -1.4084  -1.3701  -1.2289  -1.2021  -1.1728  -1.1379  -1.0990  -1.0456
 -1.0440  -1.0249  -1.0031  -0.9960  -0.9631  -0.9585  -0.9478  -0.9404
 -0.8926  -0.8688  -0.8658  -0.8144  -0.7976  -0.7887  -0.7841  -0.7672
 -0.7567  -0.7375  -0.7257  -0.7171  -0.6968  -0.6862  -0.6846  -0.6792
 -0.6740  -0.6603  -0.6556  -0.6481  -0.6334  -0.6298  -0.6192  -0.6146
 -0.6111  -0.5993  -0.5913  -0.5760  -0.5716  -0.5635  -0.5586  -0.5546
 -0.5470  -0.5326  -0.5312  -0.5245  -0.5125  -0.5076  -0.5068  -0.5009
 -0.4854  -0.4818  -0.4760  -0.4740  -0.4703  -0.4683  -0.4606  -0.4458
 -0.4222  -0.3999  -0.3845  -0.3694  -0.3507  -0.3022  -0.2887  -0.2201

          Ground-State Mulliken Net Atomic Charges

     Atom                 Charge (a.u.)
  ----------------------------------------
      1 C                    -0.069853
      2 C                    -0.264342
      3 S                    -0.137526
      4 C                    -0.042399
      5 H                     0.192881
      6 C                    -0.054047
      7 C                     0.227880
      8 C                     0.221787
      9 C                    -0.073999
     10 C                    -0.051908
     11 O                    -0.334976
     12 O                    -0.343277
     13 C                    -0.082516
     14 H                     0.119864
     15 H                     0.091726
     16 H                     0.093129
     17 C                    -0.086494
     18 H                     0.122890
     19 H                     0.091420
     20 H                     0.090727
     21 C                    -0.258317
     22 S                    -0.070835
     23 C                     0.062707
     24 H                     0.204120
     25 C                    -0.082092
     26 S                     0.093745
     27 C                    -0.187337
     28 C                     0.009601
     29 C                    -0.100174
     30 S                     0.012771
     31 C                    -0.157266
     32 C                     0.398114
     33 F                    -0.206780
     34 C                     0.444656
     35 O                    -0.460567
     36 O                    -0.300761
     37 C                    -0.058429
     38 H                     0.121325
     39 H                     0.095128
     40 H                     0.095217
     41 H                     0.219266
     42 H                     0.116462
     43 H                     0.114385
     44 H                     0.184096
  ----------------------------------------
  Sum of atomic charges =     0.000000

                    Cartesian Multipole Moments
 -----------------------------------------------------------------
    Charge (ESU x 10^10)
                -0.0000
    Dipole Moment (Debye)
         X       0.8660      Y       3.3664      Z       3.4677
       Tot       4.9099
    Quadrupole Moments (Debye-Ang)
        XX    -184.4312     XY       0.3962     YY    -178.4176
        XZ       3.7936     YZ      -7.0726     ZZ    -204.0245

 Total job time:  368.92s(wall), 11787.96s(cpu)
        *  Thank you very much for using Q-Chem.  Have a nice day.  *
