 Q-Chem 5.4, Q-Chem, Inc., Pleasanton, CA (2021)
 Q-Chem 5.4.0 for Intel X86 EM64T Linux

User input:
--------------------------------------------------------------
$molecule
0 1
C	-0.270358	-8.517702	0.172904
C	0.548363	-7.641575	-0.524688
S	-1.445750	-7.638634	1.180599
C	0.259951	-6.264785	-0.282727
H	1.347559	-7.966081	-1.203014
C	-0.833868	-6.072714	0.632972
C	-1.248701	-4.787049	1.013580
C	0.965673	-5.162801	-0.845068
C	0.553357	-3.874817	-0.460946
C	-0.543470	-3.683952	0.453541
O	1.958276	-5.499772	-1.714812
O	-2.245053	-4.459055	1.888193
C	-3.360989	-5.329063	2.033848
H	-4.130667	-4.755694	2.584788
H	-3.112380	-6.238095	2.624118
H	-3.770895	-5.637262	1.047748
C	2.994272	-4.572261	-2.013896
H	3.763700	-5.139743	-2.570853
H	3.448815	-4.153131	-1.090625
H	2.636780	-3.739531	-2.657717
C	-0.827659	-2.306654	0.694943
S	1.174750	-2.306501	-0.999993
C	-0.000000	-1.435185	-0.000000
H	-1.627541	-1.978138	1.370385
C	0.000000	0.000000	0.000000
S	0.157577	0.890937	1.507541
C	0.429889	2.439720	0.718873
C	0.157797	0.890576	-1.067872
C	0.396915	2.260004	-0.686410
S	0.118307	0.650207	-2.805516
C	0.417036	2.376229	-3.054530
C	0.537616	3.074202	-1.862551
F	0.764992	4.391378	-1.819088
C	0.496696	2.817118	-4.456084
O	0.370874	2.057582	-5.406510
O	0.723861	4.148418	-4.569225
C	0.814976	4.635075	-5.916207
H	0.999286	5.720591	-5.833064
H	-0.125909	4.442226	-6.470168
H	1.645504	4.140465	-6.459293
H	0.588993	3.350182	1.306486
H	0.311979	-9.143623	0.859314
H	-0.852097	-9.149441	-0.508666
H	0.699874	-1.443175	0.822504
$end

$rem
JOBTYPE		SP
EXCHANGE	HF
CORRELATION	pRIMP2
BASIS		cc-pvtz
METHOD		rimp2
AUX_BASIS	rimp2-cc-pvtz
SOLVENT_METHOD	PCM
PURECART	11111
SYMMETRY	false
MEM_TOTAL	110000
SCF_CONVERGENCE = 6
THRESH=10
GUI = 2
$end

$solvent
dielectric 4.90
$end
--------------------------------------------------------------

             Standard Nuclear Orientation (Angstroms)
    I     Atom           X                Y                Z
 ----------------------------------------------------------------
    1      C      -0.2703580000    -8.5177020000     0.1729040000
    2      C       0.5483630000    -7.6415750000    -0.5246880000
    3      S      -1.4457500000    -7.6386340000     1.1805990000
    4      C       0.2599510000    -6.2647850000    -0.2827270000
    5      H       1.3475590000    -7.9660810000    -1.2030140000
    6      C      -0.8338680000    -6.0727140000     0.6329720000
    7      C      -1.2487010000    -4.7870490000     1.0135800000
    8      C       0.9656730000    -5.1628010000    -0.8450680000
    9      C       0.5533570000    -3.8748170000    -0.4609460000
   10      C      -0.5434700000    -3.6839520000     0.4535410000
   11      O       1.9582760000    -5.4997720000    -1.7148120000
   12      O      -2.2450530000    -4.4590550000     1.8881930000
   13      C      -3.3609890000    -5.3290630000     2.0338480000
   14      H      -4.1306670000    -4.7556940000     2.5847880000
   15      H      -3.1123800000    -6.2380950000     2.6241180000
   16      H      -3.7708950000    -5.6372620000     1.0477480000
   17      C       2.9942720000    -4.5722610000    -2.0138960000
   18      H       3.7637000000    -5.1397430000    -2.5708530000
   19      H       3.4488150000    -4.1531310000    -1.0906250000
   20      H       2.6367800000    -3.7395310000    -2.6577170000
   21      C      -0.8276590000    -2.3066540000     0.6949430000
   22      S       1.1747500000    -2.3065010000    -0.9999930000
   23      C       0.0000000000    -1.4351850000     0.0000000000
   24      H      -1.6275410000    -1.9781380000     1.3703850000
   25      C       0.0000000000     0.0000000000     0.0000000000
   26      S       0.1575770000     0.8909370000     1.5075410000
   27      C       0.4298890000     2.4397200000     0.7188730000
   28      C       0.1577970000     0.8905760000    -1.0678720000
   29      C       0.3969150000     2.2600040000    -0.6864100000
   30      S       0.1183070000     0.6502070000    -2.8055160000
   31      C       0.4170360000     2.3762290000    -3.0545300000
   32      C       0.5376160000     3.0742020000    -1.8625510000
   33      F       0.7649920000     4.3913780000    -1.8190880000
   34      C       0.4966960000     2.8171180000    -4.4560840000
   35      O       0.3708740000     2.0575820000    -5.4065100000
   36      O       0.7238610000     4.1484180000    -4.5692250000
   37      C       0.8149760000     4.6350750000    -5.9162070000
   38      H       0.9992860000     5.7205910000    -5.8330640000
   39      H      -0.1259090000     4.4422260000    -6.4701680000
   40      H       1.6455040000     4.1404650000    -6.4592930000
   41      H       0.5889930000     3.3501820000     1.3064860000
   42      H       0.3119790000    -9.1436230000     0.8593140000
   43      H      -0.8520970000    -9.1494410000    -0.5086660000
   44      H       0.6998740000    -1.4431750000     0.8225040000
 ----------------------------------------------------------------

   11   -2755.3432584253      8.07e-07  Convergence criterion met
 Total energy in the final basis set =    -2755.3432584253
        RIMP2         total energy =     -2760.4313195098 a.u.

                    Orbital Energies (a.u.)
 --------------------------------------------------------------

 Alpha MOs
 -- Occupied --
-92.0152 -91.9960 -91.9792 -91.9584 -26.3428 -20.6147 -20.5875 -20.5870
-20.5612 -11.4092 -11.3816 -11.3092 -11.3083 -11.3079 -11.3048 -11.2974
-11.2963 -11.2887 -11.2847 -11.2843 -11.2834 -11.2830 -11.2810 -11.2731
-11.2723 -11.2584 -11.2581 -11.2498 -11.2372  -9.0141  -8.9961  -8.9813
 -8.9610  -6.6949  -6.6943  -6.6937  -6.6772  -6.6764  -6.6753  -6.6624
 -6.6615  -6.6602  -6.6422  -6.6413  -6.6402  -1.6599  -1.4671  -1.4105
 -1.4092  -1.3698  -1.2294  -1.2026  -1.1740  -1.1375  -1.1000  -1.0469
 -1.0438  -1.0244  -1.0039  -0.9971  -0.9632  -0.9577  -0.9485  -0.9411
 -0.8937  -0.8680  -0.8666  -0.8148  -0.7949  -0.7896  -0.7846  -0.7685
 -0.7564  -0.7377  -0.7248  -0.7155  -0.6969  -0.6877  -0.6845  -0.6801
 -0.6737  -0.6616  -0.6561  -0.6487  -0.6367  -0.6301  -0.6202  -0.6152
 -0.6108  -0.5991  -0.5923  -0.5768  -0.5712  -0.5638  -0.5594  -0.5576
 -0.5492  -0.5329  -0.5311  -0.5249  -0.5129  -0.5092  -0.5075  -0.5016
 -0.4850  -0.4800  -0.4763  -0.4736  -0.4693  -0.4679  -0.4608  -0.4471
 -0.4278  -0.3964  -0.3860  -0.3701  -0.3517  -0.2984  -0.2896  -0.2195

          Ground-State Mulliken Net Atomic Charges

     Atom                 Charge (a.u.)
  ----------------------------------------
      1 C                    -0.070114
      2 C                    -0.258862
      3 S                    -0.135599
      4 C                    -0.045991
      5 H                     0.193665
      6 C                    -0.049701
      7 C                     0.220874
      8 C                     0.226015
      9 C                    -0.072145
     10 C                    -0.029079
     11 O                    -0.334693
     12 O                    -0.343646
     13 C                    -0.082863
     14 H                     0.119884
     15 H                     0.092245
     16 H                     0.093156
     17 C                    -0.087582
     18 H                     0.123656
     19 H                     0.092126
     20 H                     0.091576
     21 C                    -0.299815
     22 S                    -0.080970
     23 C                     0.115338
     24 H                     0.203555
     25 C                    -0.063065
     26 S                     0.087820
     27 C                    -0.192818
     28 C                    -0.033895
     29 C                    -0.102867
     30 S                     0.008708
     31 C                    -0.156348
     32 C                     0.399334
     33 F                    -0.207724
     34 C                     0.443891
     35 O                    -0.460144
     36 O                    -0.300602
     37 C                    -0.058666
     38 H                     0.121300
     39 H                     0.095211
     40 H                     0.095070
     41 H                     0.217911
     42 H                     0.117394
     43 H                     0.115193
     44 H                     0.193267
  ----------------------------------------
  Sum of atomic charges =     0.000000

                    Cartesian Multipole Moments
 -----------------------------------------------------------------
    Charge (ESU x 10^10)
                -0.0000
    Dipole Moment (Debye)
         X       0.9961      Y       2.5406      Z       3.3284
       Tot       4.3040
    Quadrupole Moments (Debye-Ang)
        XX    -185.2455     XY      -0.3920     YY    -174.7866
        XZ      -7.5538     YZ      -4.7292     ZZ    -203.9978

 Total job time:  362.44s(wall), 11178.14s(cpu)
        *  Thank you very much for using Q-Chem.  Have a nice day.  *
