 Q-Chem 5.4, Q-Chem, Inc., Pleasanton, CA (2021)
 Q-Chem 5.4.0 for Intel X86 EM64T Linux

User input:
--------------------------------------------------------------
$molecule
0 1
C	-0.014560	-8.517702	-0.320589
C	0.180211	-7.641575	0.737240
S	-0.299553	-7.638634	-1.842356
C	0.114873	-6.264785	0.366488
H	0.368061	-7.966081	1.768528
C	-0.131236	-6.072714	-1.038637
C	-0.253435	-4.787049	-1.588197
C	0.249014	-5.162801	1.258831
C	0.122513	-3.874817	0.709695
C	-0.121043	-3.683952	-0.697430
O	0.505933	-5.499772	2.553323
O	-0.512697	-4.459055	-2.888369
C	-0.080869	-5.329063	-3.927625
H	-0.173159	-4.755694	-4.869656
H	-0.716363	-6.238095	-4.007459
H	0.978072	-5.637262	-3.789565
C	0.246949	-4.572261	3.600064
H	0.344574	-5.139743	4.544887
H	-0.779898	-4.153131	3.532074
H	0.983261	-3.739531	3.612378
C	-0.188009	-2.306654	-1.064246
S	0.278644	-2.306501	1.517360
C	-0.000000	-1.435185	-0.000000
H	-0.373017	-1.978138	-2.094685
C	0.000000	0.000000	0.000000
S	0.309893	0.850039	1.507541
C	0.847011	2.328006	0.718873
C	0.310046	0.849645	-1.067872
C	0.783331	2.156746	-0.686410
S	0.229416	0.619785	-2.805516
C	0.823328	2.267711	-3.054530
C	1.063278	2.934142	-1.862551
F	1.515925	4.191824	-1.819088
C	0.978337	2.688069	-4.456084
O	0.722535	1.961921	-5.406510
O	1.433229	3.959697	-4.569225
C	1.607467	4.423139	-5.916207
H	1.977475	5.460158	-5.833064
H	0.647388	4.396602	-6.470168
H	2.339490	3.791823	-6.459293
H	1.161798	3.197007	1.306486
H	-0.900177	-9.143623	-0.159475
H	0.866566	-9.149441	-0.483604
H	-1.062246	-1.443175	0.194856
$end

$rem
JOBTYPE		SP
EXCHANGE	HF
CORRELATION	pRIMP2
BASIS		cc-pvtz
METHOD		rimp2
AUX_BASIS	rimp2-cc-pvtz
SOLVENT_METHOD	PCM
PURECART	11111
SYMMETRY	false
MEM_TOTAL	110000
SCF_CONVERGENCE = 6
THRESH=10
GUI = 2
$end

$solvent
dielectric 4.90
$end
--------------------------------------------------------------

             Standard Nuclear Orientation (Angstroms)
    I     Atom           X                Y                Z
 ----------------------------------------------------------------
    1      C      -0.0145600000    -8.5177020000    -0.3205890000
    2      C       0.1802110000    -7.6415750000     0.7372400000
    3      S      -0.2995530000    -7.6386340000    -1.8423560000
    4      C       0.1148730000    -6.2647850000     0.3664880000
    5      H       0.3680610000    -7.9660810000     1.7685280000
    6      C      -0.1312360000    -6.0727140000    -1.0386370000
    7      C      -0.2534350000    -4.7870490000    -1.5881970000
    8      C       0.2490140000    -5.1628010000     1.2588310000
    9      C       0.1225130000    -3.8748170000     0.7096950000
   10      C      -0.1210430000    -3.6839520000    -0.6974300000
   11      O       0.5059330000    -5.4997720000     2.5533230000
   12      O      -0.5126970000    -4.4590550000    -2.8883690000
   13      C      -0.0808690000    -5.3290630000    -3.9276250000
   14      H      -0.1731590000    -4.7556940000    -4.8696560000
   15      H      -0.7163630000    -6.2380950000    -4.0074590000
   16      H       0.9780720000    -5.6372620000    -3.7895650000
   17      C       0.2469490000    -4.5722610000     3.6000640000
   18      H       0.3445740000    -5.1397430000     4.5448870000
   19      H      -0.7798980000    -4.1531310000     3.5320740000
   20      H       0.9832610000    -3.7395310000     3.6123780000
   21      C      -0.1880090000    -2.3066540000    -1.0642460000
   22      S       0.2786440000    -2.3065010000     1.5173600000
   23      C       0.0000000000    -1.4351850000     0.0000000000
   24      H      -0.3730170000    -1.9781380000    -2.0946850000
   25      C       0.0000000000     0.0000000000     0.0000000000
   26      S       0.3098930000     0.8500390000     1.5075410000
   27      C       0.8470110000     2.3280060000     0.7188730000
   28      C       0.3100460000     0.8496450000    -1.0678720000
   29      C       0.7833310000     2.1567460000    -0.6864100000
   30      S       0.2294160000     0.6197850000    -2.8055160000
   31      C       0.8233280000     2.2677110000    -3.0545300000
   32      C       1.0632780000     2.9341420000    -1.8625510000
   33      F       1.5159250000     4.1918240000    -1.8190880000
   34      C       0.9783370000     2.6880690000    -4.4560840000
   35      O       0.7225350000     1.9619210000    -5.4065100000
   36      O       1.4332290000     3.9596970000    -4.5692250000
   37      C       1.6074670000     4.4231390000    -5.9162070000
   38      H       1.9774750000     5.4601580000    -5.8330640000
   39      H       0.6473880000     4.3966020000    -6.4701680000
   40      H       2.3394900000     3.7918230000    -6.4592930000
   41      H       1.1617980000     3.1970070000     1.3064860000
   42      H      -0.9001770000    -9.1436230000    -0.1594750000
   43      H       0.8665660000    -9.1494410000    -0.4836040000
   44      H      -1.0622460000    -1.4431750000     0.1948560000
 ----------------------------------------------------------------

   11   -2755.3321515532      8.90e-07  Convergence criterion met
 Total energy in the final basis set =    -2755.3321515532
        RIMP2         total energy =     -2760.4253384519 a.u.

                    Orbital Energies (a.u.)
 --------------------------------------------------------------

 Alpha MOs
 -- Occupied --
-92.0149 -91.9973 -91.9825 -91.9587 -26.3430 -20.6150 -20.5887 -20.5873
-20.5616 -11.4096 -11.3820 -11.3102 -11.3097 -11.3070 -11.3038 -11.2983
-11.2942 -11.2889 -11.2858 -11.2852 -11.2848 -11.2824 -11.2823 -11.2747
-11.2735 -11.2596 -11.2591 -11.2503 -11.2385  -9.0137  -8.9975  -8.9847
 -8.9612  -6.6945  -6.6939  -6.6934  -6.6786  -6.6779  -6.6767  -6.6658
 -6.6650  -6.6637  -6.6425  -6.6416  -6.6405  -1.6601  -1.4675  -1.4120
 -1.4092  -1.3702  -1.2304  -1.2032  -1.1747  -1.1378  -1.1009  -1.0478
 -1.0451  -1.0240  -1.0046  -0.9988  -0.9633  -0.9594  -0.9493  -0.9407
 -0.8954  -0.8702  -0.8653  -0.8099  -0.8017  -0.7902  -0.7842  -0.7683
 -0.7568  -0.7380  -0.7250  -0.7133  -0.6990  -0.6904  -0.6848  -0.6811
 -0.6740  -0.6627  -0.6573  -0.6492  -0.6392  -0.6316  -0.6206  -0.6153
 -0.6121  -0.5987  -0.5934  -0.5770  -0.5712  -0.5652  -0.5598  -0.5543
 -0.5466  -0.5355  -0.5309  -0.5298  -0.5144  -0.5095  -0.5085  -0.5011
 -0.4853  -0.4820  -0.4773  -0.4739  -0.4710  -0.4670  -0.4597  -0.4472
 -0.4335  -0.3941  -0.3872  -0.3714  -0.3505  -0.2991  -0.2888  -0.2171

          Ground-State Mulliken Net Atomic Charges

     Atom                 Charge (a.u.)
  ----------------------------------------
      1 C                    -0.070398
      2 C                    -0.256865
      3 S                    -0.134368
      4 C                    -0.047592
      5 H                     0.193853
      6 C                    -0.051506
      7 C                     0.227189
      8 C                     0.228581
      9 C                    -0.073500
     10 C                    -0.046267
     11 O                    -0.333708
     12 O                    -0.344521
     13 C                    -0.083347
     14 H                     0.121387
     15 H                     0.092588
     16 H                     0.092986
     17 C                    -0.088981
     18 H                     0.124832
     19 H                     0.093036
     20 H                     0.090068
     21 C                    -0.278828
     22 S                    -0.094314
     23 C                     0.103167
     24 H                     0.199486
     25 C                    -0.049420
     26 S                     0.074452
     27 C                    -0.207533
     28 C                     0.010792
     29 C                    -0.114502
     30 S                    -0.006880
     31 C                    -0.164540
     32 C                     0.408911
     33 F                    -0.206952
     34 C                     0.445089
     35 O                    -0.460726
     36 O                    -0.300804
     37 C                    -0.058540
     38 H                     0.121511
     39 H                     0.095120
     40 H                     0.095202
     41 H                     0.218315
     42 H                     0.117870
     43 H                     0.115617
     44 H                     0.204040
  ----------------------------------------
  Sum of atomic charges =     0.000000

                    Cartesian Multipole Moments
 -----------------------------------------------------------------
    Charge (ESU x 10^10)
                 0.0000
    Dipole Moment (Debye)
         X       0.2437      Y       1.9259      Z       3.3701
       Tot       3.8892
    Quadrupole Moments (Debye-Ang)
        XX    -199.6625     XY       4.3003     YY    -174.0490
        XZ      -5.4030     YZ     -11.3654     ZZ    -188.0729

 Total job time:  361.07s(wall), 11085.71s(cpu)
        *  Thank you very much for using Q-Chem.  Have a nice day.  *
