 Q-Chem 5.4, Q-Chem, Inc., Pleasanton, CA (2021)
 Q-Chem 5.4.0 for Intel X86 EM64T Linux

User input:
--------------------------------------------------------------
$molecule
0 1
C	-0.236226	-8.517702	0.217225
C	0.448921	-7.641575	-0.611939
S	-1.218777	-7.638634	1.413715
C	0.206907	-6.264785	-0.323572
H	1.118185	-7.966081	-1.418739
C	-0.711285	-6.072714	0.768156
C	-1.053725	-4.787049	1.215016
C	0.804258	-5.162801	-0.999917
C	0.464908	-3.874817	-0.550033
C	-0.456457	-3.683952	0.541024
O	1.630752	-5.499772	-2.028811
O	-1.883064	-4.459055	2.249357
C	-2.956754	-5.329063	2.586579
H	-3.619069	-4.755694	3.262802
H	-2.609423	-6.238095	3.124711
H	-3.531667	-5.637262	1.686639
C	2.599073	-4.572261	-2.503251
H	3.260097	-5.139743	-3.185356
H	3.207034	-4.153131	-1.672937
H	2.135214	-3.739531	-3.075213
C	-0.694410	-2.306654	0.828107
S	0.983256	-2.306501	-1.188794
C	0.000000	-1.435185	0.000000
H	-1.364851	-1.978138	1.632185
C	0.000000	0.000000	0.000000
S	0.234628	0.873813	1.507541
C	0.640889	2.392969	0.718873
C	0.234815	0.873434	-1.067872
C	0.592377	2.216811	-0.686410
S	0.174526	0.637422	-2.805516
C	0.622551	2.330840	-3.054530
C	0.803505	3.015647	-1.862551
F	1.144815	4.307994	-1.819088
C	0.740334	2.763108	-4.456084
O	0.548793	2.017428	-5.406510
O	1.082665	4.069544	-4.569225
C	1.215848	4.546407	-5.916207
H	1.494066	5.611729	-5.833064
H	0.261736	4.436296	-6.470168
H	2.000108	3.981294	-6.459293
H	0.878739	3.286099	1.306486
H	0.456457	-9.143623	0.792084
H	-0.927480	-9.149441	-0.352973
H	0.832067	-1.443175	0.688477
$end

$rem
JOBTYPE		SP
EXCHANGE	HF
CORRELATION	pRIMP2
BASIS		cc-pvtz
METHOD		rimp2
AUX_BASIS	rimp2-cc-pvtz
SOLVENT_METHOD	PCM
PURECART	11111
SYMMETRY	false
MEM_TOTAL	110000
SCF_CONVERGENCE = 6
THRESH=10
GUI = 2
$end

$solvent
dielectric 4.90
$end
--------------------------------------------------------------

             Standard Nuclear Orientation (Angstroms)
    I     Atom           X                Y                Z
 ----------------------------------------------------------------
    1      C      -0.2362260000    -8.5177020000     0.2172250000
    2      C       0.4489210000    -7.6415750000    -0.6119390000
    3      S      -1.2187770000    -7.6386340000     1.4137150000
    4      C       0.2069070000    -6.2647850000    -0.3235720000
    5      H       1.1181850000    -7.9660810000    -1.4187390000
    6      C      -0.7112850000    -6.0727140000     0.7681560000
    7      C      -1.0537250000    -4.7870490000     1.2150160000
    8      C       0.8042580000    -5.1628010000    -0.9999170000
    9      C       0.4649080000    -3.8748170000    -0.5500330000
   10      C      -0.4564570000    -3.6839520000     0.5410240000
   11      O       1.6307520000    -5.4997720000    -2.0288110000
   12      O      -1.8830640000    -4.4590550000     2.2493570000
   13      C      -2.9567540000    -5.3290630000     2.5865790000
   14      H      -3.6190690000    -4.7556940000     3.2628020000
   15      H      -2.6094230000    -6.2380950000     3.1247110000
   16      H      -3.5316670000    -5.6372620000     1.6866390000
   17      C       2.5990730000    -4.5722610000    -2.5032510000
   18      H       3.2600970000    -5.1397430000    -3.1853560000
   19      H       3.2070340000    -4.1531310000    -1.6729370000
   20      H       2.1352140000    -3.7395310000    -3.0752130000
   21      C      -0.6944100000    -2.3066540000     0.8281070000
   22      S       0.9832560000    -2.3065010000    -1.1887940000
   23      C       0.0000000000    -1.4351850000     0.0000000000
   24      H      -1.3648510000    -1.9781380000     1.6321850000
   25      C       0.0000000000     0.0000000000     0.0000000000
   26      S       0.2346280000     0.8738130000     1.5075410000
   27      C       0.6408890000     2.3929690000     0.7188730000
   28      C       0.2348150000     0.8734340000    -1.0678720000
   29      C       0.5923770000     2.2168110000    -0.6864100000
   30      S       0.1745260000     0.6374220000    -2.8055160000
   31      C       0.6225510000     2.3308400000    -3.0545300000
   32      C       0.8035050000     3.0156470000    -1.8625510000
   33      F       1.1448150000     4.3079940000    -1.8190880000
   34      C       0.7403340000     2.7631080000    -4.4560840000
   35      O       0.5487930000     2.0174280000    -5.4065100000
   36      O       1.0826650000     4.0695440000    -4.5692250000
   37      C       1.2158480000     4.5464070000    -5.9162070000
   38      H       1.4940660000     5.6117290000    -5.8330640000
   39      H       0.2617360000     4.4362960000    -6.4701680000
   40      H       2.0001080000     3.9812940000    -6.4592930000
   41      H       0.8787390000     3.2860990000     1.3064860000
   42      H       0.4564570000    -9.1436230000     0.7920840000
   43      H      -0.9274800000    -9.1494410000    -0.3529730000
   44      H       0.8320670000    -1.4431750000     0.6884770000
 ----------------------------------------------------------------

   11   -2755.3409352089      8.26e-07  Convergence criterion met
 Total energy in the final basis set =    -2755.3409352089
        RIMP2         total energy =     -2760.4302846526 a.u.

                    Orbital Energies (a.u.)
 --------------------------------------------------------------

 Alpha MOs
 -- Occupied --
-92.0137 -91.9952 -91.9795 -91.9589 -26.3425 -20.6147 -20.5877 -20.5875
-20.5612 -11.4091 -11.3812 -11.3095 -11.3088 -11.3069 -11.3063 -11.2972
-11.2952 -11.2887 -11.2845 -11.2844 -11.2835 -11.2832 -11.2817 -11.2738
-11.2719 -11.2590 -11.2588 -11.2504 -11.2384  -9.0127  -8.9954  -8.9816
 -8.9615  -6.6936  -6.6930  -6.6924  -6.6765  -6.6757  -6.6746  -6.6627
 -6.6618  -6.6605  -6.6427  -6.6418  -6.6408  -1.6597  -1.4671  -1.4109
 -1.4094  -1.3698  -1.2300  -1.2024  -1.1745  -1.1375  -1.1003  -1.0475
 -1.0438  -1.0244  -1.0041  -0.9973  -0.9633  -0.9574  -0.9489  -0.9413
 -0.8941  -0.8680  -0.8661  -0.8149  -0.7940  -0.7897  -0.7847  -0.7690
 -0.7563  -0.7378  -0.7246  -0.7148  -0.6970  -0.6886  -0.6845  -0.6805
 -0.6737  -0.6624  -0.6562  -0.6490  -0.6373  -0.6303  -0.6207  -0.6155
 -0.6109  -0.5991  -0.5927  -0.5769  -0.5711  -0.5643  -0.5591  -0.5585
 -0.5488  -0.5333  -0.5311  -0.5253  -0.5133  -0.5102  -0.5077  -0.5017
 -0.4848  -0.4794  -0.4763  -0.4735  -0.4693  -0.4676  -0.4605  -0.4475
 -0.4294  -0.3953  -0.3863  -0.3705  -0.3518  -0.2976  -0.2894  -0.2192

          Ground-State Mulliken Net Atomic Charges

     Atom                 Charge (a.u.)
  ----------------------------------------
      1 C                    -0.070286
      2 C                    -0.255697
      3 S                    -0.134729
      4 C                    -0.048053
      5 H                     0.194125
      6 C                    -0.048326
      7 C                     0.217331
      8 C                     0.227757
      9 C                    -0.072756
     10 C                    -0.016972
     11 O                    -0.334486
     12 O                    -0.343621
     13 C                    -0.082792
     14 H                     0.119962
     15 H                     0.092117
     16 H                     0.093235
     17 C                    -0.088537
     18 H                     0.124061
     19 H                     0.092392
     20 H                     0.091907
     21 C                    -0.318376
     22 S                    -0.088871
     23 C                     0.127447
     24 H                     0.201776
     25 C                    -0.027255
     26 S                     0.086040
     27 C                    -0.200359
     28 C                    -0.073759
     29 C                    -0.092614
     30 S                     0.007633
     31 C                    -0.157759
     32 C                     0.402443
     33 F                    -0.207993
     34 C                     0.442892
     35 O                    -0.460117
     36 O                    -0.300624
     37 C                    -0.058571
     38 H                     0.121309
     39 H                     0.095180
     40 H                     0.095014
     41 H                     0.217057
     42 H                     0.117861
     43 H                     0.115740
     44 H                     0.199276
  ----------------------------------------
  Sum of atomic charges =     0.000000

                    Cartesian Multipole Moments
 -----------------------------------------------------------------
    Charge (ESU x 10^10)
                -0.0000
    Dipole Moment (Debye)
         X       1.2919      Y       2.1201      Z       3.2077
       Tot       4.0563
    Quadrupole Moments (Debye-Ang)
        XX    -187.1742     XY       1.2105     YY    -173.6174
        XZ     -10.2317     YZ      -3.9794     ZZ    -201.5107

 Total job time:  363.17s(wall), 11199.86s(cpu)
        *  Thank you very much for using Q-Chem.  Have a nice day.  *
