 Q-Chem 5.4, Q-Chem, Inc., Pleasanton, CA (2021)
 Q-Chem 5.4.0 for Intel X86 EM64T Linux

User input:
--------------------------------------------------------------
$molecule
0 1
C	-0.070009	-8.517702	-0.313191
C	0.305494	-7.641575	0.694746
S	-0.614924	-7.638634	-1.762350
C	0.176768	-6.264785	0.340973
H	0.669571	-7.966081	1.677747
C	-0.309600	-6.072714	-1.000069
C	-0.525372	-4.787049	-1.520060
C	0.463825	-5.162801	1.196466
C	0.243888	-3.874817	0.677639
C	-0.240312	-3.683952	-0.665815
O	0.941626	-5.499772	2.426678
O	-1.006468	-4.459055	-2.755460
C	-0.761666	-5.329063	-3.853913
H	-1.016135	-4.755694	-4.765607
H	-1.401368	-6.238095	-3.822182
H	0.305161	-5.637262	-3.901833
C	0.868342	-4.572261	3.502489
H	1.128551	-5.139743	4.416005
H	-0.154712	-4.153131	3.613841
H	1.595605	-3.739531	3.386756
C	-0.369957	-2.306654	-1.015430
S	0.537898	-2.306501	1.445922
C	-0.000000	-1.435185	-0.000000
H	-0.731088	-1.978138	-1.998088
C	0.000000	0.000000	0.000000
S	0.581934	0.692785	1.507541
C	1.592155	1.897915	0.718873
C	0.581944	0.692363	-1.067872
C	1.473741	1.758764	-0.686410
S	0.427560	0.503942	-2.805516
C	1.549278	1.849357	-3.054530
C	2.002690	2.393529	-1.862551
F	2.858191	3.420549	-1.819088
C	1.838710	2.191348	-4.456084
O	1.349977	1.596481	-5.406510
O	2.701091	3.230705	-4.569225
C	3.023327	3.606605	-5.916207
H	3.725703	4.454534	-5.833064
H	2.112072	3.910035	-6.470168
H	3.495281	2.762996	-6.459293
H	2.185174	2.606846	1.306486
H	-0.914194	-9.143623	-0.000738
H	0.769424	-9.149441	-0.626735
H	-1.012272	-1.443175	0.376353
$end

$rem
JOBTYPE		SP
EXCHANGE	HF
CORRELATION	pRIMP2
BASIS		cc-pvtz
METHOD		rimp2
AUX_BASIS	rimp2-cc-pvtz
SOLVENT_METHOD	PCM
PURECART	11111
SYMMETRY	false
MEM_TOTAL	110000
SCF_CONVERGENCE = 6
THRESH=10
GUI = 2
$end

$solvent
dielectric 4.90
$end
--------------------------------------------------------------

             Standard Nuclear Orientation (Angstroms)
    I     Atom           X                Y                Z
 ----------------------------------------------------------------
    1      C      -0.0700090000    -8.5177020000    -0.3131910000
    2      C       0.3054940000    -7.6415750000     0.6947460000
    3      S      -0.6149240000    -7.6386340000    -1.7623500000
    4      C       0.1767680000    -6.2647850000     0.3409730000
    5      H       0.6695710000    -7.9660810000     1.6777470000
    6      C      -0.3096000000    -6.0727140000    -1.0000690000
    7      C      -0.5253720000    -4.7870490000    -1.5200600000
    8      C       0.4638250000    -5.1628010000     1.1964660000
    9      C       0.2438880000    -3.8748170000     0.6776390000
   10      C      -0.2403120000    -3.6839520000    -0.6658150000
   11      O       0.9416260000    -5.4997720000     2.4266780000
   12      O      -1.0064680000    -4.4590550000    -2.7554600000
   13      C      -0.7616660000    -5.3290630000    -3.8539130000
   14      H      -1.0161350000    -4.7556940000    -4.7656070000
   15      H      -1.4013680000    -6.2380950000    -3.8221820000
   16      H       0.3051610000    -5.6372620000    -3.9018330000
   17      C       0.8683420000    -4.5722610000     3.5024890000
   18      H       1.1285510000    -5.1397430000     4.4160050000
   19      H      -0.1547120000    -4.1531310000     3.6138410000
   20      H       1.5956050000    -3.7395310000     3.3867560000
   21      C      -0.3699570000    -2.3066540000    -1.0154300000
   22      S       0.5378980000    -2.3065010000     1.4459220000
   23      C       0.0000000000    -1.4351850000     0.0000000000
   24      H      -0.7310880000    -1.9781380000    -1.9980880000
   25      C       0.0000000000     0.0000000000     0.0000000000
   26      S       0.5819340000     0.6927850000     1.5075410000
   27      C       1.5921550000     1.8979150000     0.7188730000
   28      C       0.5819440000     0.6923630000    -1.0678720000
   29      C       1.4737410000     1.7587640000    -0.6864100000
   30      S       0.4275600000     0.5039420000    -2.8055160000
   31      C       1.5492780000     1.8493570000    -3.0545300000
   32      C       2.0026900000     2.3935290000    -1.8625510000
   33      F       2.8581910000     3.4205490000    -1.8190880000
   34      C       1.8387100000     2.1913480000    -4.4560840000
   35      O       1.3499770000     1.5964810000    -5.4065100000
   36      O       2.7010910000     3.2307050000    -4.5692250000
   37      C       3.0233270000     3.6066050000    -5.9162070000
   38      H       3.7257030000     4.4545340000    -5.8330640000
   39      H       2.1120720000     3.9100350000    -6.4701680000
   40      H       3.4952810000     2.7629960000    -6.4592930000
   41      H       2.1851740000     2.6068460000     1.3064860000
   42      H      -0.9141940000    -9.1436230000    -0.0007380000
   43      H       0.7694240000    -9.1494410000    -0.6267350000
   44      H      -1.0122720000    -1.4431750000     0.3763530000
 ----------------------------------------------------------------

   11   -2755.3048599336      8.68e-07  Convergence criterion met
 Total energy in the final basis set =    -2755.3048599336
        RIMP2         total energy =     -2760.4046472805 a.u.

                    Orbital Energies (a.u.)
 --------------------------------------------------------------

 Alpha MOs
 -- Occupied --
-92.0146 -92.0026 -91.9796 -91.9563 -26.3446 -20.6156 -20.5864 -20.5861
-20.5622 -11.4104 -11.3844 -11.3166 -11.3084 -11.3055 -11.3040 -11.2989
-11.2920 -11.2894 -11.2865 -11.2845 -11.2822 -11.2817 -11.2764 -11.2746
-11.2701 -11.2568 -11.2548 -11.2478 -11.2325  -9.0139  -9.0026  -8.9818
 -8.9589  -6.6946  -6.6939  -6.6935  -6.6836  -6.6829  -6.6818  -6.6628
 -6.6619  -6.6606  -6.6402  -6.6392  -6.6382  -1.6617  -1.4681  -1.4096
 -1.4081  -1.3709  -1.2334  -1.2020  -1.1722  -1.1393  -1.0987  -1.0466
 -1.0454  -1.0260  -1.0031  -0.9964  -0.9643  -0.9595  -0.9476  -0.9404
 -0.8936  -0.8705  -0.8635  -0.8127  -0.8000  -0.7901  -0.7825  -0.7659
 -0.7575  -0.7371  -0.7265  -0.7150  -0.6976  -0.6894  -0.6854  -0.6806
 -0.6746  -0.6615  -0.6560  -0.6479  -0.6380  -0.6306  -0.6182  -0.6138
 -0.6118  -0.6006  -0.5920  -0.5778  -0.5697  -0.5651  -0.5577  -0.5558
 -0.5411  -0.5348  -0.5301  -0.5283  -0.5142  -0.5092  -0.5073  -0.4996
 -0.4861  -0.4823  -0.4761  -0.4747  -0.4701  -0.4674  -0.4555  -0.4448
 -0.4311  -0.3922  -0.3851  -0.3691  -0.3505  -0.3029  -0.2873  -0.2136

          Ground-State Mulliken Net Atomic Charges

     Atom                 Charge (a.u.)
  ----------------------------------------
      1 C                    -0.069393
      2 C                    -0.273450
      3 S                    -0.139660
      4 C                    -0.042766
      5 H                     0.191600
      6 C                    -0.055101
      7 C                     0.226235
      8 C                     0.219626
      9 C                    -0.074491
     10 C                    -0.055891
     11 O                    -0.334890
     12 O                    -0.344456
     13 C                    -0.082816
     14 H                     0.120597
     15 H                     0.092217
     16 H                     0.092811
     17 C                    -0.088346
     18 H                     0.123958
     19 H                     0.091849
     20 H                     0.089214
     21 C                    -0.255682
     22 S                    -0.089956
     23 C                     0.060752
     24 H                     0.203650
     25 C                    -0.097724
     26 S                     0.081658
     27 C                    -0.168531
     28 C                     0.042927
     29 C                    -0.113909
     30 S                     0.017985
     31 C                    -0.160779
     32 C                     0.404370
     33 F                    -0.205644
     34 C                     0.446839
     35 O                    -0.461122
     36 O                    -0.301027
     37 C                    -0.058425
     38 H                     0.121619
     39 H                     0.095212
     40 H                     0.095332
     41 H                     0.219890
     42 H                     0.115492
     43 H                     0.113218
     44 H                     0.207008
  ----------------------------------------
  Sum of atomic charges =     0.000000

                    Cartesian Multipole Moments
 -----------------------------------------------------------------
    Charge (ESU x 10^10)
                 0.0000
    Dipole Moment (Debye)
         X       1.5590      Y       3.3364      Z       3.1436
       Tot       4.8419
    Quadrupole Moments (Debye-Ang)
        XX    -194.9603     XY       7.0032     YY    -187.7353
        XZ      -4.4372     YZ      -9.2470     ZZ    -186.9906

 Total job time:  358.35s(wall), 10838.95s(cpu)
        *  Thank you very much for using Q-Chem.  Have a nice day.  *
