 Q-Chem 5.4, Q-Chem, Inc., Pleasanton, CA (2021)
 Q-Chem 5.4.0 for Intel X86 EM64T Linux

User input:
--------------------------------------------------------------
$molecule
0 1
C	0.296276	-8.517702	-0.123330
C	-0.631143	-7.641575	0.421494
S	1.628795	-7.638634	-0.911611
C	-0.305097	-6.264785	0.233291
H	-1.535988	-7.966081	0.950737
C	0.931114	-6.072714	-0.478557
C	1.405737	-4.787049	-0.781346
C	-1.097747	-5.162801	0.664542
C	-0.624993	-3.874817	0.357854
C	0.613970	-3.683952	-0.352278
O	-2.226300	-5.499772	1.348709
O	2.538827	-4.459055	-1.469658
C	3.663102	-5.329063	-1.419319
H	4.516756	-4.755694	-1.828237
H	3.520769	-6.238095	-2.043793
H	3.895546	-5.637262	-0.377021
C	-3.298492	-4.572261	1.463351
H	-4.152945	-5.139743	1.878237
H	-3.585804	-4.153131	0.475176
H	-3.058230	-3.739531	2.159469
C	0.935761	-2.306654	-0.540664
S	-1.330550	-2.306501	0.780808
C	-0.000000	-1.435185	-0.000000
H	1.840780	-1.978138	-1.066946
C	0.000000	0.000000	0.000000
S	0.382799	0.819795	1.507541
C	1.046687	2.245325	0.718873
C	0.382918	0.819389	-1.067872
C	0.968323	2.080267	-0.686410
S	0.282561	0.597432	-2.805516
C	1.017839	2.187324	-3.054530
C	1.314960	2.830306	-1.862551
F	1.875498	4.043751	-1.819088
C	1.208895	2.592573	-4.456084
O	0.890778	1.891482	-5.406510
O	1.772886	3.819715	-4.569225
C	1.986852	4.266207	-5.916207
H	2.445834	5.267032	-5.833064
H	1.028114	4.323448	-6.470168
H	2.661066	3.573494	-6.459293
H	1.436015	3.083584	1.306486
H	-0.158021	-9.143623	-0.900433
H	0.750822	-9.149441	0.648903
H	-0.546415	-1.443175	-0.931540
$end

$rem
JOBTYPE		SP
EXCHANGE	HF
CORRELATION	pRIMP2
BASIS		cc-pvtz
METHOD		rimp2
AUX_BASIS	rimp2-cc-pvtz
SOLVENT_METHOD	PCM
PURECART	11111
SYMMETRY	false
MEM_TOTAL	110000
SCF_CONVERGENCE = 6
THRESH=10
GUI = 2
$end

$solvent
dielectric 4.90
$end
--------------------------------------------------------------

             Standard Nuclear Orientation (Angstroms)
    I     Atom           X                Y                Z
 ----------------------------------------------------------------
    1      C       0.2962760000    -8.5177020000    -0.1233300000
    2      C      -0.6311430000    -7.6415750000     0.4214940000
    3      S       1.6287950000    -7.6386340000    -0.9116110000
    4      C      -0.3050970000    -6.2647850000     0.2332910000
    5      H      -1.5359880000    -7.9660810000     0.9507370000
    6      C       0.9311140000    -6.0727140000    -0.4785570000
    7      C       1.4057370000    -4.7870490000    -0.7813460000
    8      C      -1.0977470000    -5.1628010000     0.6645420000
    9      C      -0.6249930000    -3.8748170000     0.3578540000
   10      C       0.6139700000    -3.6839520000    -0.3522780000
   11      O      -2.2263000000    -5.4997720000     1.3487090000
   12      O       2.5388270000    -4.4590550000    -1.4696580000
   13      C       3.6631020000    -5.3290630000    -1.4193190000
   14      H       4.5167560000    -4.7556940000    -1.8282370000
   15      H       3.5207690000    -6.2380950000    -2.0437930000
   16      H       3.8955460000    -5.6372620000    -0.3770210000
   17      C      -3.2984920000    -4.5722610000     1.4633510000
   18      H      -4.1529450000    -5.1397430000     1.8782370000
   19      H      -3.5858040000    -4.1531310000     0.4751760000
   20      H      -3.0582300000    -3.7395310000     2.1594690000
   21      C       0.9357610000    -2.3066540000    -0.5406640000
   22      S      -1.3305500000    -2.3065010000     0.7808080000
   23      C       0.0000000000    -1.4351850000     0.0000000000
   24      H       1.8407800000    -1.9781380000    -1.0669460000
   25      C       0.0000000000     0.0000000000     0.0000000000
   26      S       0.3827990000     0.8197950000     1.5075410000
   27      C       1.0466870000     2.2453250000     0.7188730000
   28      C       0.3829180000     0.8193890000    -1.0678720000
   29      C       0.9683230000     2.0802670000    -0.6864100000
   30      S       0.2825610000     0.5974320000    -2.8055160000
   31      C       1.0178390000     2.1873240000    -3.0545300000
   32      C       1.3149600000     2.8303060000    -1.8625510000
   33      F       1.8754980000     4.0437510000    -1.8190880000
   34      C       1.2088950000     2.5925730000    -4.4560840000
   35      O       0.8907780000     1.8914820000    -5.4065100000
   36      O       1.7728860000     3.8197150000    -4.5692250000
   37      C       1.9868520000     4.2662070000    -5.9162070000
   38      H       2.4458340000     5.2670320000    -5.8330640000
   39      H       1.0281140000     4.3234480000    -6.4701680000
   40      H       2.6610660000     3.5734940000    -6.4592930000
   41      H       1.4360150000     3.0835840000     1.3064860000
   42      H      -0.1580210000    -9.1436230000    -0.9004330000
   43      H       0.7508220000    -9.1494410000     0.6489030000
   44      H      -0.5464150000    -1.4431750000    -0.9315400000
 ----------------------------------------------------------------

   11   -2755.3368518855      6.96e-07  Convergence criterion met
 Total energy in the final basis set =    -2755.3368518855
        RIMP2         total energy =     -2760.4279261950 a.u.

                    Orbital Energies (a.u.)
 --------------------------------------------------------------

 Alpha MOs
 -- Occupied --
-92.0110 -92.0017 -91.9770 -91.9578 -26.3449 -20.6156 -20.5869 -20.5866
-20.5621 -11.4104 -11.3846 -11.3138 -11.3088 -11.3066 -11.3059 -11.2990
-11.2980 -11.2894 -11.2862 -11.2843 -11.2826 -11.2825 -11.2797 -11.2724
-11.2721 -11.2578 -11.2571 -11.2493 -11.2360  -9.0100  -9.0018  -8.9792
 -8.9604  -6.6908  -6.6901  -6.6897  -6.6828  -6.6821  -6.6809  -6.6603
 -6.6594  -6.6582  -6.6416  -6.6407  -6.6397  -1.6619  -1.4680  -1.4101
 -1.4086  -1.3708  -1.2311  -1.2023  -1.1731  -1.1377  -1.1005  -1.0470
 -1.0455  -1.0240  -1.0029  -0.9970  -0.9628  -0.9590  -0.9485  -0.9416
 -0.8930  -0.8713  -0.8641  -0.8120  -0.7982  -0.7903  -0.7839  -0.7674
 -0.7589  -0.7355  -0.7267  -0.7104  -0.7005  -0.6948  -0.6855  -0.6799
 -0.6746  -0.6649  -0.6555  -0.6483  -0.6359  -0.6302  -0.6196  -0.6147
 -0.6117  -0.5996  -0.5927  -0.5775  -0.5714  -0.5658  -0.5577  -0.5548
 -0.5459  -0.5318  -0.5291  -0.5262  -0.5126  -0.5089  -0.5070  -0.5015
 -0.4850  -0.4818  -0.4762  -0.4746  -0.4689  -0.4683  -0.4603  -0.4460
 -0.4240  -0.3993  -0.3843  -0.3696  -0.3513  -0.3029  -0.2888  -0.2195

          Ground-State Mulliken Net Atomic Charges

     Atom                 Charge (a.u.)
  ----------------------------------------
      1 C                    -0.070207
      2 C                    -0.262268
      3 S                    -0.136040
      4 C                    -0.045416
      5 H                     0.193037
      6 C                    -0.053257
      7 C                     0.221493
      8 C                     0.230054
      9 C                    -0.080009
     10 C                    -0.038468
     11 O                    -0.335236
     12 O                    -0.343008
     13 C                    -0.082651
     14 H                     0.120065
     15 H                     0.092110
     16 H                     0.092578
     17 C                    -0.086605
     18 H                     0.123285
     19 H                     0.092388
     20 H                     0.089943
     21 C                    -0.281227
     22 S                    -0.074538
     23 C                     0.072794
     24 H                     0.210482
     25 C                    -0.059278
     26 S                     0.091449
     27 C                    -0.177891
     28 C                    -0.043091
     29 C                    -0.090780
     30 S                     0.016579
     31 C                    -0.156664
     32 C                     0.397210
     33 F                    -0.205473
     34 C                     0.446271
     35 O                    -0.460896
     36 O                    -0.300978
     37 C                    -0.058398
     38 H                     0.121565
     39 H                     0.095319
     40 H                     0.095235
     41 H                     0.217409
     42 H                     0.117091
     43 H                     0.114655
     44 H                     0.191363
  ----------------------------------------
  Sum of atomic charges =     0.000000

                    Cartesian Multipole Moments
 -----------------------------------------------------------------
    Charge (ESU x 10^10)
                 0.0000
    Dipole Moment (Debye)
         X       0.9132      Y       2.9711      Z       2.3704
       Tot       3.9090
    Quadrupole Moments (Debye-Ang)
        XX    -181.1399     XY       9.5298     YY    -178.3854
        XZ      -6.6558     YZ      -8.8491     ZZ    -205.5014

 Total job time:  544.56s(wall), 10610.54s(cpu)
        *  Thank you very much for using Q-Chem.  Have a nice day.  *
