 Q-Chem 5.4, Q-Chem, Inc., Pleasanton, CA (2021)
 Q-Chem 5.4.0 for Intel X86 EM64T Linux

User input:
--------------------------------------------------------------
$molecule
0 1
C	-0.194917	-8.517702	0.254945
C	0.335839	-7.641575	-0.680596
S	-0.954772	-7.638634	1.603876
C	0.147576	-6.264785	-0.354585
H	0.854836	-7.966081	-1.591356
C	-0.567090	-6.072714	0.879999
C	-0.826731	-4.787049	1.379534
C	0.618405	-5.162801	-1.124384
C	0.362333	-3.874817	-0.622407
C	-0.355575	-3.683952	0.612067
O	1.253677	-5.499772	-2.281166
O	-1.463859	-4.459055	2.542174
C	-2.462679	-5.329063	3.060718
H	-2.997507	-4.755694	3.841678
H	-2.027179	-6.238095	3.530361
H	-3.185132	-5.637262	2.274283
C	2.124902	-4.572261	-2.916545
H	2.657438	-5.139743	-3.703073
H	2.867810	-4.153131	-2.204417
H	1.568770	-3.739531	-3.399269
C	-0.540061	-2.306654	0.936109
S	0.761887	-2.306501	-1.341474
C	-0.000000	-1.435185	-0.000000
H	-1.060690	-1.978138	1.844392
C	0.000000	0.000000	0.000000
S	0.382799	0.819795	1.507541
C	1.046687	2.245325	0.718873
C	0.382918	0.819389	-1.067872
C	0.968323	2.080267	-0.686410
S	0.282561	0.597432	-2.805516
C	1.017839	2.187324	-3.054530
C	1.314960	2.830306	-1.862551
F	1.875498	4.043751	-1.819088
C	1.208895	2.592573	-4.456084
O	0.890778	1.891482	-5.406510
O	1.772886	3.819715	-4.569225
C	1.986852	4.266207	-5.916207
H	2.445834	5.267032	-5.833064
H	1.028114	4.323448	-6.470168
H	2.661066	3.573494	-6.459293
H	1.436015	3.083584	1.306486
H	0.587067	-9.143623	0.700788
H	-0.974683	-9.149441	-0.186556
H	0.938979	-1.443175	0.533530
$end

$rem
JOBTYPE		SP
EXCHANGE	HF
CORRELATION	pRIMP2
BASIS		cc-pvtz
METHOD		rimp2
AUX_BASIS	rimp2-cc-pvtz
SOLVENT_METHOD	PCM
PURECART	11111
SYMMETRY	false
MEM_TOTAL	110000
SCF_CONVERGENCE = 6
THRESH=10
GUI = 2
$end

$solvent
dielectric 4.90
$end
--------------------------------------------------------------

             Standard Nuclear Orientation (Angstroms)
    I     Atom           X                Y                Z
 ----------------------------------------------------------------
    1      C      -0.1949170000    -8.5177020000     0.2549450000
    2      C       0.3358390000    -7.6415750000    -0.6805960000
    3      S      -0.9547720000    -7.6386340000     1.6038760000
    4      C       0.1475760000    -6.2647850000    -0.3545850000
    5      H       0.8548360000    -7.9660810000    -1.5913560000
    6      C      -0.5670900000    -6.0727140000     0.8799990000
    7      C      -0.8267310000    -4.7870490000     1.3795340000
    8      C       0.6184050000    -5.1628010000    -1.1243840000
    9      C       0.3623330000    -3.8748170000    -0.6224070000
   10      C      -0.3555750000    -3.6839520000     0.6120670000
   11      O       1.2536770000    -5.4997720000    -2.2811660000
   12      O      -1.4638590000    -4.4590550000     2.5421740000
   13      C      -2.4626790000    -5.3290630000     3.0607180000
   14      H      -2.9975070000    -4.7556940000     3.8416780000
   15      H      -2.0271790000    -6.2380950000     3.5303610000
   16      H      -3.1851320000    -5.6372620000     2.2742830000
   17      C       2.1249020000    -4.5722610000    -2.9165450000
   18      H       2.6574380000    -5.1397430000    -3.7030730000
   19      H       2.8678100000    -4.1531310000    -2.2044170000
   20      H       1.5687700000    -3.7395310000    -3.3992690000
   21      C      -0.5400610000    -2.3066540000     0.9361090000
   22      S       0.7618870000    -2.3065010000    -1.3414740000
   23      C       0.0000000000    -1.4351850000     0.0000000000
   24      H      -1.0606900000    -1.9781380000     1.8443920000
   25      C       0.0000000000     0.0000000000     0.0000000000
   26      S       0.3827990000     0.8197950000     1.5075410000
   27      C       1.0466870000     2.2453250000     0.7188730000
   28      C       0.3829180000     0.8193890000    -1.0678720000
   29      C       0.9683230000     2.0802670000    -0.6864100000
   30      S       0.2825610000     0.5974320000    -2.8055160000
   31      C       1.0178390000     2.1873240000    -3.0545300000
   32      C       1.3149600000     2.8303060000    -1.8625510000
   33      F       1.8754980000     4.0437510000    -1.8190880000
   34      C       1.2088950000     2.5925730000    -4.4560840000
   35      O       0.8907780000     1.8914820000    -5.4065100000
   36      O       1.7728860000     3.8197150000    -4.5692250000
   37      C       1.9868520000     4.2662070000    -5.9162070000
   38      H       2.4458340000     5.2670320000    -5.8330640000
   39      H       1.0281140000     4.3234480000    -6.4701680000
   40      H       2.6610660000     3.5734940000    -6.4592930000
   41      H       1.4360150000     3.0835840000     1.3064860000
   42      H       0.5870670000    -9.1436230000     0.7007880000
   43      H      -0.9746830000    -9.1494410000    -0.1865560000
   44      H       0.9389790000    -1.4431750000     0.5335300000
 ----------------------------------------------------------------

   11   -2755.3331568200      8.28e-07  Convergence criterion met
 Total energy in the final basis set =    -2755.3331568200
        RIMP2         total energy =     -2760.4255821124 a.u.

                    Orbital Energies (a.u.)
 --------------------------------------------------------------

 Alpha MOs
 -- Occupied --
-92.0118 -91.9952 -91.9788 -91.9592 -26.3425 -20.6147 -20.5877 -20.5877
-20.5612 -11.4091 -11.3812 -11.3094 -11.3094 -11.3073 -11.3056 -11.2972
-11.2953 -11.2887 -11.2846 -11.2843 -11.2833 -11.2830 -11.2817 -11.2742
-11.2707 -11.2595 -11.2590 -11.2507 -11.2393  -9.0111  -8.9955  -8.9810
 -8.9618  -6.6919  -6.6913  -6.6907  -6.6765  -6.6758  -6.6746  -6.6621
 -6.6612  -6.6599  -6.6430  -6.6421  -6.6410  -1.6597  -1.4671  -1.4111
 -1.4095  -1.3698  -1.2315  -1.2019  -1.1748  -1.1379  -1.1001  -1.0479
 -1.0440  -1.0247  -1.0039  -0.9970  -0.9637  -0.9569  -0.9493  -0.9416
 -0.8942  -0.8682  -0.8650  -0.8155  -0.7931  -0.7897  -0.7843  -0.7693
 -0.7562  -0.7377  -0.7246  -0.7141  -0.6968  -0.6899  -0.6845  -0.6809
 -0.6737  -0.6634  -0.6562  -0.6490  -0.6375  -0.6305  -0.6210  -0.6156
 -0.6110  -0.5994  -0.5930  -0.5771  -0.5709  -0.5649  -0.5595  -0.5583
 -0.5476  -0.5335  -0.5310  -0.5255  -0.5138  -0.5113  -0.5078  -0.5015
 -0.4845  -0.4794  -0.4764  -0.4735  -0.4695  -0.4667  -0.4592  -0.4476
 -0.4303  -0.3941  -0.3858  -0.3707  -0.3520  -0.2977  -0.2886  -0.2187

          Ground-State Mulliken Net Atomic Charges

     Atom                 Charge (a.u.)
  ----------------------------------------
      1 C                    -0.070582
      2 C                    -0.252895
      3 S                    -0.133735
      4 C                    -0.049834
      5 H                     0.194471
      6 C                    -0.047766
      7 C                     0.214726
      8 C                     0.228813
      9 C                    -0.074798
     10 C                    -0.015498
     11 O                    -0.334223
     12 O                    -0.343592
     13 C                    -0.082749
     14 H                     0.119919
     15 H                     0.092044
     16 H                     0.093204
     17 C                    -0.089456
     18 H                     0.124359
     19 H                     0.092500
     20 H                     0.092253
     21 C                    -0.327894
     22 S                    -0.095138
     23 C                     0.128709
     24 H                     0.200718
     25 C                     0.007615
     26 S                     0.081214
     27 C                    -0.205351
     28 C                    -0.102515
     29 C                    -0.082697
     30 S                     0.010624
     31 C                    -0.159264
     32 C                     0.405079
     33 F                    -0.207908
     34 C                     0.442486
     35 O                    -0.460156
     36 O                    -0.300717
     37 C                    -0.058614
     38 H                     0.121366
     39 H                     0.095242
     40 H                     0.094978
     41 H                     0.216655
     42 H                     0.118327
     43 H                     0.116074
     44 H                     0.204005
  ----------------------------------------
  Sum of atomic charges =     0.000000

                    Cartesian Multipole Moments
 -----------------------------------------------------------------
    Charge (ESU x 10^10)
                -0.0000
    Dipole Moment (Debye)
         X       1.7782      Y       1.7532      Z       3.0146
       Tot       3.9146
    Quadrupole Moments (Debye-Ang)
        XX    -188.4989     XY       3.8364     YY    -173.8618
        XZ     -12.4888     YZ      -3.0184     ZZ    -198.3434

 Total job time:  323.66s(wall), 10650.82s(cpu)
        *  Thank you very much for using Q-Chem.  Have a nice day.  *
