 Q-Chem 5.4, Q-Chem, Inc., Pleasanton, CA (2021)
 Q-Chem 5.4.0 for Intel X86 EM64T Linux

User input:
--------------------------------------------------------------
$molecule
0 1
C	-0.123330	-8.517702	-0.296276
C	0.421494	-7.641575	0.631143
S	-0.911611	-7.638634	-1.628795
C	0.233291	-6.264785	0.305097
H	0.950737	-7.966081	1.535988
C	-0.478557	-6.072714	-0.931114
C	-0.781346	-4.787049	-1.405737
C	0.664542	-5.162801	1.097747
C	0.357854	-3.874817	0.624993
C	-0.352278	-3.683952	-0.613970
O	1.348709	-5.499772	2.226300
O	-1.469658	-4.459055	-2.538827
C	-1.419319	-5.329063	-3.663102
H	-1.828237	-4.755694	-4.516756
H	-2.043793	-6.238095	-3.520769
H	-0.377021	-5.637262	-3.895546
C	1.463351	-4.572261	3.298492
H	1.878237	-5.139743	4.152945
H	0.475176	-4.153131	3.585804
H	2.159469	-3.739531	3.058230
C	-0.540664	-2.306654	-0.935761
S	0.780808	-2.306501	1.330550
C	0.000000	-1.435185	0.000000
H	-1.066946	-1.978138	-1.840780
C	0.000000	0.000000	0.000000
S	0.452792	0.783312	1.507541
C	1.238397	2.145556	0.718873
C	0.452875	0.782898	-1.067872
C	1.145945	1.987956	-0.686410
S	0.333556	0.570531	-2.805516
C	1.204604	2.090290	-3.054530
C	1.556633	2.704929	-1.862551
F	2.220797	3.864903	-1.819088
C	1.430252	2.477345	-4.456084
O	1.052242	1.806648	-5.406510
O	2.099050	3.650663	-4.569225
C	2.351116	4.076808	-5.916207
H	2.895579	5.033821	-5.833064
H	1.401015	4.217390	-6.470168
H	2.962391	3.327969	-6.459293
H	1.699302	2.946693	1.306486
H	-0.900433	-9.143623	0.158021
H	0.648903	-9.149441	-0.750822
H	-0.931540	-1.443175	0.546415
$end

$rem
JOBTYPE		SP
EXCHANGE	HF
CORRELATION	pRIMP2
BASIS		cc-pvtz
METHOD		rimp2
AUX_BASIS	rimp2-cc-pvtz
SOLVENT_METHOD	PCM
PURECART	11111
SYMMETRY	false
MEM_TOTAL	110000
SCF_CONVERGENCE = 6
THRESH=10
GUI = 2
$end

$solvent
dielectric 4.90
$end
--------------------------------------------------------------

             Standard Nuclear Orientation (Angstroms)
    I     Atom           X                Y                Z
 ----------------------------------------------------------------
    1      C      -0.1233300000    -8.5177020000    -0.2962760000
    2      C       0.4214940000    -7.6415750000     0.6311430000
    3      S      -0.9116110000    -7.6386340000    -1.6287950000
    4      C       0.2332910000    -6.2647850000     0.3050970000
    5      H       0.9507370000    -7.9660810000     1.5359880000
    6      C      -0.4785570000    -6.0727140000    -0.9311140000
    7      C      -0.7813460000    -4.7870490000    -1.4057370000
    8      C       0.6645420000    -5.1628010000     1.0977470000
    9      C       0.3578540000    -3.8748170000     0.6249930000
   10      C      -0.3522780000    -3.6839520000    -0.6139700000
   11      O       1.3487090000    -5.4997720000     2.2263000000
   12      O      -1.4696580000    -4.4590550000    -2.5388270000
   13      C      -1.4193190000    -5.3290630000    -3.6631020000
   14      H      -1.8282370000    -4.7556940000    -4.5167560000
   15      H      -2.0437930000    -6.2380950000    -3.5207690000
   16      H      -0.3770210000    -5.6372620000    -3.8955460000
   17      C       1.4633510000    -4.5722610000     3.2984920000
   18      H       1.8782370000    -5.1397430000     4.1529450000
   19      H       0.4751760000    -4.1531310000     3.5858040000
   20      H       2.1594690000    -3.7395310000     3.0582300000
   21      C      -0.5406640000    -2.3066540000    -0.9357610000
   22      S       0.7808080000    -2.3065010000     1.3305500000
   23      C       0.0000000000    -1.4351850000     0.0000000000
   24      H      -1.0669460000    -1.9781380000    -1.8407800000
   25      C       0.0000000000     0.0000000000     0.0000000000
   26      S       0.4527920000     0.7833120000     1.5075410000
   27      C       1.2383970000     2.1455560000     0.7188730000
   28      C       0.4528750000     0.7828980000    -1.0678720000
   29      C       1.1459450000     1.9879560000    -0.6864100000
   30      S       0.3335560000     0.5705310000    -2.8055160000
   31      C       1.2046040000     2.0902900000    -3.0545300000
   32      C       1.5566330000     2.7049290000    -1.8625510000
   33      F       2.2207970000     3.8649030000    -1.8190880000
   34      C       1.4302520000     2.4773450000    -4.4560840000
   35      O       1.0522420000     1.8066480000    -5.4065100000
   36      O       2.0990500000     3.6506630000    -4.5692250000
   37      C       2.3511160000     4.0768080000    -5.9162070000
   38      H       2.8955790000     5.0338210000    -5.8330640000
   39      H       1.4010150000     4.2173900000    -6.4701680000
   40      H       2.9623910000     3.3279690000    -6.4592930000
   41      H       1.6993020000     2.9466930000     1.3064860000
   42      H      -0.9004330000    -9.1436230000     0.1580210000
   43      H       0.6489030000    -9.1494410000    -0.7508220000
   44      H      -0.9315400000    -1.4431750000     0.5464150000
 ----------------------------------------------------------------

   11   -2755.3230545796      8.67e-07  Convergence criterion met
 Total energy in the final basis set =    -2755.3230545796
        RIMP2         total energy =     -2760.4176354388 a.u.

                    Orbital Energies (a.u.)
 --------------------------------------------------------------

 Alpha MOs
 -- Occupied --
-92.0154 -91.9999 -91.9798 -91.9572 -26.3439 -20.6153 -20.5868 -20.5867
-20.5619 -11.4100 -11.3833 -11.3124 -11.3088 -11.3067 -11.3001 -11.2987
-11.2979 -11.2892 -11.2858 -11.2848 -11.2830 -11.2821 -11.2784 -11.2742
-11.2715 -11.2576 -11.2566 -11.2487 -11.2346  -9.0144  -9.0000  -8.9820
 -8.9598  -6.6952  -6.6946  -6.6941  -6.6810  -6.6803  -6.6792  -6.6631
 -6.6622  -6.6609  -6.6411  -6.6401  -6.6391  -1.6610  -1.4678  -1.4102
 -1.4085  -1.3705  -1.2312  -1.2025  -1.1730  -1.1385  -1.0994  -1.0460
 -1.0455  -1.0251  -1.0037  -0.9970  -0.9636  -0.9593  -0.9480  -0.9404
 -0.8939  -0.8696  -0.8650  -0.8120  -0.8003  -0.7895  -0.7835  -0.7668
 -0.7571  -0.7374  -0.7258  -0.7153  -0.6978  -0.6881  -0.6851  -0.6803
 -0.6743  -0.6613  -0.6562  -0.6483  -0.6371  -0.6308  -0.6191  -0.6143
 -0.6120  -0.5998  -0.5922  -0.5765  -0.5706  -0.5646  -0.5581  -0.5545
 -0.5445  -0.5342  -0.5305  -0.5290  -0.5139  -0.5087  -0.5076  -0.5004
 -0.4853  -0.4822  -0.4761  -0.4747  -0.4715  -0.4685  -0.4577  -0.4455
 -0.4302  -0.3940  -0.3856  -0.3695  -0.3511  -0.3012  -0.2881  -0.2159

          Ground-State Mulliken Net Atomic Charges

     Atom                 Charge (a.u.)
  ----------------------------------------
      1 C                    -0.069774
      2 C                    -0.267371
      3 S                    -0.137398
      4 C                    -0.043215
      5 H                     0.192417
      6 C                    -0.053437
      7 C                     0.223169
      8 C                     0.220112
      9 C                    -0.076394
     10 C                    -0.050911
     11 O                    -0.334643
     12 O                    -0.344028
     13 C                    -0.082644
     14 H                     0.120605
     15 H                     0.091957
     16 H                     0.093022
     17 C                    -0.088125
     18 H                     0.123856
     19 H                     0.091981
     20 H                     0.089641
     21 C                    -0.268815
     22 S                    -0.081953
     23 C                     0.068443
     24 H                     0.206981
     25 C                    -0.093367
     26 S                     0.075012
     27 C                    -0.173835
     28 C                     0.045328
     29 C                    -0.115180
     30 S                     0.008893
     31 C                    -0.158172
     32 C                     0.402249
     33 F                    -0.206340
     34 C                     0.445767
     35 O                    -0.460593
     36 O                    -0.300922
     37 C                    -0.058453
     38 H                     0.121565
     39 H                     0.095134
     40 H                     0.095306
     41 H                     0.219243
     42 H                     0.116353
     43 H                     0.114128
     44 H                     0.204407
  ----------------------------------------
  Sum of atomic charges =     0.000000

                    Cartesian Multipole Moments
 -----------------------------------------------------------------
    Charge (ESU x 10^10)
                 0.0000
    Dipole Moment (Debye)
         X       1.0176      Y       3.0098      Z       3.3354
       Tot       4.6064
    Quadrupole Moments (Debye-Ang)
        XX    -197.1541     XY       5.2207     YY    -181.7829
        XZ      -0.2209     YZ      -9.8034     ZZ    -188.0033

 Total job time:  336.46s(wall), 10694.69s(cpu)
        *  Thank you very much for using Q-Chem.  Have a nice day.  *
