 Q-Chem 5.4, Q-Chem, Inc., Pleasanton, CA (2021)
 Q-Chem 5.4.0 for Intel X86 EM64T Linux

User input:
--------------------------------------------------------------
$molecule
0 1
C	-0.270358	-8.517702	0.172904
C	0.548363	-7.641575	-0.524688
S	-1.445750	-7.638634	1.180599
C	0.259951	-6.264785	-0.282727
H	1.347559	-7.966081	-1.203014
C	-0.833868	-6.072714	0.632972
C	-1.248701	-4.787049	1.013580
C	0.965673	-5.162801	-0.845068
C	0.553357	-3.874817	-0.460946
C	-0.543470	-3.683952	0.453541
O	1.958276	-5.499772	-1.714812
O	-2.245053	-4.459055	1.888193
C	-3.360989	-5.329063	2.033848
H	-4.130667	-4.755694	2.584788
H	-3.112380	-6.238095	2.624118
H	-3.770895	-5.637262	1.047748
C	2.994272	-4.572261	-2.013896
H	3.763700	-5.139743	-2.570853
H	3.448815	-4.153131	-1.090625
H	2.636780	-3.739531	-2.657717
C	-0.827659	-2.306654	0.694943
S	1.174750	-2.306501	-0.999993
C	-0.000000	-1.435185	-0.000000
H	-1.627541	-1.978138	1.370385
C	0.000000	0.000000	0.000000
S	0.581934	0.692785	1.507541
C	1.592155	1.897915	0.718873
C	0.581944	0.692363	-1.067872
C	1.473741	1.758764	-0.686410
S	0.427560	0.503942	-2.805516
C	1.549278	1.849357	-3.054530
C	2.002690	2.393529	-1.862551
F	2.858191	3.420549	-1.819088
C	1.838710	2.191348	-4.456084
O	1.349977	1.596481	-5.406510
O	2.701091	3.230705	-4.569225
C	3.023327	3.606605	-5.916207
H	3.725703	4.454534	-5.833064
H	2.112072	3.910035	-6.470168
H	3.495281	2.762996	-6.459293
H	2.185174	2.606846	1.306486
H	0.311979	-9.143623	0.859314
H	-0.852097	-9.149441	-0.508666
H	0.699874	-1.443175	0.822504
$end

$rem
JOBTYPE		SP
EXCHANGE	HF
CORRELATION	pRIMP2
BASIS		cc-pvtz
METHOD		rimp2
AUX_BASIS	rimp2-cc-pvtz
SOLVENT_METHOD	PCM
PURECART	11111
SYMMETRY	false
MEM_TOTAL	110000
SCF_CONVERGENCE = 6
THRESH=10
GUI = 2
$end

$solvent
dielectric 4.90
$end
--------------------------------------------------------------

             Standard Nuclear Orientation (Angstroms)
    I     Atom           X                Y                Z
 ----------------------------------------------------------------
    1      C      -0.2703580000    -8.5177020000     0.1729040000
    2      C       0.5483630000    -7.6415750000    -0.5246880000
    3      S      -1.4457500000    -7.6386340000     1.1805990000
    4      C       0.2599510000    -6.2647850000    -0.2827270000
    5      H       1.3475590000    -7.9660810000    -1.2030140000
    6      C      -0.8338680000    -6.0727140000     0.6329720000
    7      C      -1.2487010000    -4.7870490000     1.0135800000
    8      C       0.9656730000    -5.1628010000    -0.8450680000
    9      C       0.5533570000    -3.8748170000    -0.4609460000
   10      C      -0.5434700000    -3.6839520000     0.4535410000
   11      O       1.9582760000    -5.4997720000    -1.7148120000
   12      O      -2.2450530000    -4.4590550000     1.8881930000
   13      C      -3.3609890000    -5.3290630000     2.0338480000
   14      H      -4.1306670000    -4.7556940000     2.5847880000
   15      H      -3.1123800000    -6.2380950000     2.6241180000
   16      H      -3.7708950000    -5.6372620000     1.0477480000
   17      C       2.9942720000    -4.5722610000    -2.0138960000
   18      H       3.7637000000    -5.1397430000    -2.5708530000
   19      H       3.4488150000    -4.1531310000    -1.0906250000
   20      H       2.6367800000    -3.7395310000    -2.6577170000
   21      C      -0.8276590000    -2.3066540000     0.6949430000
   22      S       1.1747500000    -2.3065010000    -0.9999930000
   23      C       0.0000000000    -1.4351850000     0.0000000000
   24      H      -1.6275410000    -1.9781380000     1.3703850000
   25      C       0.0000000000     0.0000000000     0.0000000000
   26      S       0.5819340000     0.6927850000     1.5075410000
   27      C       1.5921550000     1.8979150000     0.7188730000
   28      C       0.5819440000     0.6923630000    -1.0678720000
   29      C       1.4737410000     1.7587640000    -0.6864100000
   30      S       0.4275600000     0.5039420000    -2.8055160000
   31      C       1.5492780000     1.8493570000    -3.0545300000
   32      C       2.0026900000     2.3935290000    -1.8625510000
   33      F       2.8581910000     3.4205490000    -1.8190880000
   34      C       1.8387100000     2.1913480000    -4.4560840000
   35      O       1.3499770000     1.5964810000    -5.4065100000
   36      O       2.7010910000     3.2307050000    -4.5692250000
   37      C       3.0233270000     3.6066050000    -5.9162070000
   38      H       3.7257030000     4.4545340000    -5.8330640000
   39      H       2.1120720000     3.9100350000    -6.4701680000
   40      H       3.4952810000     2.7629960000    -6.4592930000
   41      H       2.1851740000     2.6068460000     1.3064860000
   42      H       0.3119790000    -9.1436230000     0.8593140000
   43      H      -0.8520970000    -9.1494410000    -0.5086660000
   44      H       0.6998740000    -1.4431750000     0.8225040000
 ----------------------------------------------------------------

   11   -2755.3111401818      8.07e-07  Convergence criterion met
 Total energy in the final basis set =    -2755.3111401818
        RIMP2         total energy =     -2760.4074914181 a.u.

                    Orbital Energies (a.u.)
 --------------------------------------------------------------

 Alpha MOs
 -- Occupied --
-92.0114 -92.0002 -91.9760 -91.9568 -26.3443 -20.6152 -20.5867 -20.5855
-20.5617 -11.4099 -11.3839 -11.3200 -11.3080 -11.3051 -11.3051 -11.2980
-11.2930 -11.2892 -11.2863 -11.2835 -11.2824 -11.2811 -11.2756 -11.2707
-11.2692 -11.2568 -11.2544 -11.2483 -11.2339  -9.0112  -9.0003  -8.9781
 -8.9594  -6.6920  -6.6912  -6.6908  -6.6813  -6.6805  -6.6794  -6.6592
 -6.6583  -6.6570  -6.6407  -6.6397  -6.6387  -1.6614  -1.4677  -1.4092
 -1.4081  -1.3704  -1.2351  -1.2006  -1.1726  -1.1396  -1.0982  -1.0475
 -1.0435  -1.0268  -1.0022  -0.9947  -0.9649  -0.9570  -0.9479  -0.9410
 -0.8923  -0.8698  -0.8621  -0.8174  -0.7946  -0.7884  -0.7829  -0.7671
 -0.7568  -0.7378  -0.7262  -0.7163  -0.6958  -0.6889  -0.6850  -0.6795
 -0.6743  -0.6624  -0.6551  -0.6478  -0.6359  -0.6297  -0.6187  -0.6146
 -0.6107  -0.6004  -0.5914  -0.5760  -0.5718  -0.5642  -0.5597  -0.5562
 -0.5430  -0.5328  -0.5313  -0.5242  -0.5120  -0.5102  -0.5067  -0.5002
 -0.4852  -0.4812  -0.4759  -0.4739  -0.4688  -0.4658  -0.4579  -0.4458
 -0.4269  -0.3948  -0.3830  -0.3684  -0.3533  -0.3009  -0.2878  -0.2164

          Ground-State Mulliken Net Atomic Charges

     Atom                 Charge (a.u.)
  ----------------------------------------
      1 C                    -0.069699
      2 C                    -0.268412
      3 S                    -0.139055
      4 C                    -0.044627
      5 H                     0.192415
      6 C                    -0.049399
      7 C                     0.216306
      8 C                     0.220365
      9 C                    -0.070671
     10 C                    -0.033593
     11 O                    -0.335140
     12 O                    -0.343600
     13 C                    -0.082806
     14 H                     0.119519
     15 H                     0.092109
     16 H                     0.092965
     17 C                    -0.088483
     18 H                     0.123396
     19 H                     0.091165
     20 H                     0.091210
     21 C                    -0.297756
     22 S                    -0.087034
     23 C                     0.085034
     24 H                     0.203744
     25 C                    -0.054702
     26 S                     0.085597
     27 C                    -0.163806
     28 C                    -0.060584
     29 C                    -0.081233
     30 S                     0.038973
     31 C                    -0.152091
     32 C                     0.398305
     33 F                    -0.206569
     34 C                     0.444705
     35 O                    -0.460782
     36 O                    -0.300976
     37 C                    -0.058427
     38 H                     0.121392
     39 H                     0.095314
     40 H                     0.095133
     41 H                     0.218504
     42 H                     0.116118
     43 H                     0.113876
     44 H                     0.193301
  ----------------------------------------
  Sum of atomic charges =     0.000000

                    Cartesian Multipole Moments
 -----------------------------------------------------------------
    Charge (ESU x 10^10)
                -0.0000
    Dipole Moment (Debye)
         X       2.5900      Y       3.1249      Z       3.0924
       Tot       5.1025
    Quadrupole Moments (Debye-Ang)
        XX    -179.0049     XY       5.3617     YY    -185.9263
        XZ     -10.8485     YZ      -3.0710     ZZ    -203.1818

 Total job time:  314.66s(wall), 10003.08s(cpu)
        *  Thank you very much for using Q-Chem.  Have a nice day.  *
