 Q-Chem 5.4, Q-Chem, Inc., Pleasanton, CA (2021)
 Q-Chem 5.4.0 for Intel X86 EM64T Linux

User input:
--------------------------------------------------------------
$molecule
0 1
C	-0.313191	-8.517702	0.070009
C	0.694746	-7.641575	-0.305494
S	-1.762350	-7.638634	0.614924
C	0.340973	-6.264785	-0.176768
H	1.677747	-7.966081	-0.669571
C	-1.000069	-6.072714	0.309600
C	-1.520060	-4.787049	0.525372
C	1.196466	-5.162801	-0.463825
C	0.677639	-3.874817	-0.243888
C	-0.665815	-3.683952	0.240312
O	2.426678	-5.499772	-0.941626
O	-2.755460	-4.459055	1.006468
C	-3.853913	-5.329063	0.761666
H	-4.765607	-4.755694	1.016135
H	-3.822182	-6.238095	1.401368
H	-3.901833	-5.637262	-0.305161
C	3.502489	-4.572261	-0.868342
H	4.416005	-5.139743	-1.128551
H	3.613841	-4.153131	0.154712
H	3.386756	-3.739531	-1.595605
C	-1.015430	-2.306654	0.369957
S	1.445922	-2.306501	-0.537898
C	-0.000000	-1.435185	-0.000000
H	-1.998088	-1.978138	0.731088
C	0.000000	0.000000	0.000000
S	0.079327	0.901280	1.507541
C	0.215617	2.467903	0.718873
C	0.079577	0.900940	-1.067872
C	0.198433	2.285998	-0.686410
S	0.061187	0.658044	-2.805516
C	0.208347	2.403534	-3.054530
C	0.267636	3.109360	-1.862551
F	0.379347	4.441341	-1.819088
C	0.249278	2.849688	-4.456084
O	0.190132	2.082076	-5.406510
O	0.359548	4.195721	-4.569225
C	0.407901	4.688467	-5.916207
H	0.496901	5.785916	-5.833064
H	-0.512596	4.414348	-6.470168
H	1.278377	4.268124	-6.459293
H	0.294764	3.388767	1.306486
H	-0.000738	-9.143623	0.914194
H	-0.626735	-9.149441	-0.769424
H	0.376353	-1.443175	1.012272
$end

$rem
JOBTYPE		SP
EXCHANGE	HF
CORRELATION	pRIMP2
BASIS		cc-pvtz
METHOD		rimp2
AUX_BASIS	rimp2-cc-pvtz
SOLVENT_METHOD	PCM
PURECART	11111
SYMMETRY	false
MEM_TOTAL	110000
SCF_CONVERGENCE = 6
THRESH=10
GUI = 2
$end

$solvent
dielectric 4.90
$end
--------------------------------------------------------------

             Standard Nuclear Orientation (Angstroms)
    I     Atom           X                Y                Z
 ----------------------------------------------------------------
    1      C      -0.3131910000    -8.5177020000     0.0700090000
    2      C       0.6947460000    -7.6415750000    -0.3054940000
    3      S      -1.7623500000    -7.6386340000     0.6149240000
    4      C       0.3409730000    -6.2647850000    -0.1767680000
    5      H       1.6777470000    -7.9660810000    -0.6695710000
    6      C      -1.0000690000    -6.0727140000     0.3096000000
    7      C      -1.5200600000    -4.7870490000     0.5253720000
    8      C       1.1964660000    -5.1628010000    -0.4638250000
    9      C       0.6776390000    -3.8748170000    -0.2438880000
   10      C      -0.6658150000    -3.6839520000     0.2403120000
   11      O       2.4266780000    -5.4997720000    -0.9416260000
   12      O      -2.7554600000    -4.4590550000     1.0064680000
   13      C      -3.8539130000    -5.3290630000     0.7616660000
   14      H      -4.7656070000    -4.7556940000     1.0161350000
   15      H      -3.8221820000    -6.2380950000     1.4013680000
   16      H      -3.9018330000    -5.6372620000    -0.3051610000
   17      C       3.5024890000    -4.5722610000    -0.8683420000
   18      H       4.4160050000    -5.1397430000    -1.1285510000
   19      H       3.6138410000    -4.1531310000     0.1547120000
   20      H       3.3867560000    -3.7395310000    -1.5956050000
   21      C      -1.0154300000    -2.3066540000     0.3699570000
   22      S       1.4459220000    -2.3065010000    -0.5378980000
   23      C       0.0000000000    -1.4351850000     0.0000000000
   24      H      -1.9980880000    -1.9781380000     0.7310880000
   25      C       0.0000000000     0.0000000000     0.0000000000
   26      S       0.0793270000     0.9012800000     1.5075410000
   27      C       0.2156170000     2.4679030000     0.7188730000
   28      C       0.0795770000     0.9009400000    -1.0678720000
   29      C       0.1984330000     2.2859980000    -0.6864100000
   30      S       0.0611870000     0.6580440000    -2.8055160000
   31      C       0.2083470000     2.4035340000    -3.0545300000
   32      C       0.2676360000     3.1093600000    -1.8625510000
   33      F       0.3793470000     4.4413410000    -1.8190880000
   34      C       0.2492780000     2.8496880000    -4.4560840000
   35      O       0.1901320000     2.0820760000    -5.4065100000
   36      O       0.3595480000     4.1957210000    -4.5692250000
   37      C       0.4079010000     4.6884670000    -5.9162070000
   38      H       0.4969010000     5.7859160000    -5.8330640000
   39      H      -0.5125960000     4.4143480000    -6.4701680000
   40      H       1.2783770000     4.2681240000    -6.4592930000
   41      H       0.2947640000     3.3887670000     1.3064860000
   42      H      -0.0007380000    -9.1436230000     0.9141940000
   43      H      -0.6267350000    -9.1494410000    -0.7694240000
   44      H       0.3763530000    -1.4431750000     1.0122720000
 ----------------------------------------------------------------

   11   -2755.3447566652      7.62e-07  Convergence criterion met
 Total energy in the final basis set =    -2755.3447566652
        RIMP2         total energy =     -2760.4316680663 a.u.

                    Orbital Energies (a.u.)
 --------------------------------------------------------------

 Alpha MOs
 -- Occupied --
-92.0173 -91.9975 -91.9777 -91.9578 -26.3433 -20.6149 -20.5872 -20.5865
-20.5614 -11.4094 -11.3823 -11.3108 -11.3089 -11.3067 -11.3012 -11.2982
-11.2979 -11.2889 -11.2851 -11.2841 -11.2828 -11.2827 -11.2797 -11.2723
-11.2723 -11.2578 -11.2569 -11.2493 -11.2359  -9.0160  -8.9976  -8.9798
 -8.9604  -6.6967  -6.6961  -6.6956  -6.6786  -6.6779  -6.6768  -6.6609
 -6.6601  -6.6588  -6.6416  -6.6407  -6.6397  -1.6604  -1.4673  -1.4100
 -1.4088  -1.3700  -1.2287  -1.2025  -1.1733  -1.1376  -1.0995  -1.0460
 -1.0439  -1.0247  -1.0035  -0.9966  -0.9630  -0.9581  -0.9481  -0.9408
 -0.8930  -0.8683  -0.8666  -0.8146  -0.7965  -0.7893  -0.7844  -0.7678
 -0.7566  -0.7377  -0.7253  -0.7166  -0.6968  -0.6866  -0.6846  -0.6796
 -0.6739  -0.6606  -0.6559  -0.6484  -0.6349  -0.6298  -0.6196  -0.6149
 -0.6108  -0.5992  -0.5917  -0.5768  -0.5713  -0.5636  -0.5593  -0.5560
 -0.5493  -0.5323  -0.5312  -0.5242  -0.5126  -0.5080  -0.5071  -0.5013
 -0.4854  -0.4812  -0.4764  -0.4738  -0.4699  -0.4677  -0.4609  -0.4464
 -0.4243  -0.3988  -0.3852  -0.3697  -0.3513  -0.3006  -0.2893  -0.2202

          Ground-State Mulliken Net Atomic Charges

     Atom                 Charge (a.u.)
  ----------------------------------------
      1 C                    -0.070008
      2 C                    -0.262218
      3 S                    -0.136668
      4 C                    -0.043622
      5 H                     0.193080
      6 C                    -0.052700
      7 C                     0.226570
      8 C                     0.223702
      9 C                    -0.074628
     10 C                    -0.053502
     11 O                    -0.335048
     12 O                    -0.343502
     13 C                    -0.082706
     14 H                     0.119845
     15 H                     0.092012
     16 H                     0.093183
     17 C                    -0.086450
     18 H                     0.123081
     19 H                     0.091749
     20 H                     0.091055
     21 C                    -0.259596
     22 S                    -0.071766
     23 C                     0.086199
     24 H                     0.204223
     25 C                    -0.099459
     26 S                     0.091852
     27 C                    -0.188098
     28 C                     0.019009
     29 C                    -0.112807
     30 S                     0.010468
     31 C                    -0.157038
     32 C                     0.399367
     33 F                    -0.207295
     34 C                     0.444373
     35 O                    -0.460309
     36 O                    -0.300592
     37 C                    -0.058656
     38 H                     0.121322
     39 H                     0.095220
     40 H                     0.095143
     41 H                     0.218956
     42 H                     0.116800
     43 H                     0.114746
     44 H                     0.184714
  ----------------------------------------
  Sum of atomic charges =     0.000000

                    Cartesian Multipole Moments
 -----------------------------------------------------------------
    Charge (ESU x 10^10)
                -0.0000
    Dipole Moment (Debye)
         X       0.5547      Y       3.1102      Z       3.4499
       Tot       4.6779
    Quadrupole Moments (Debye-Ang)
        XX    -183.3287     XY      -2.1626     YY    -176.3843
        XZ      -0.9410     YZ      -6.0517     ZZ    -206.1814

 Total job time:  320.09s(wall), 10368.01s(cpu)
        *  Thank you very much for using Q-Chem.  Have a nice day.  *
