 Q-Chem 5.4, Q-Chem, Inc., Pleasanton, CA (2021)
 Q-Chem 5.4.0 for Intel X86 EM64T Linux

User input:
--------------------------------------------------------------
$molecule
0 1
C	-0.270358	-8.517702	0.172904
C	0.548363	-7.641575	-0.524688
S	-1.445750	-7.638634	1.180599
C	0.259951	-6.264785	-0.282727
H	1.347559	-7.966081	-1.203014
C	-0.833868	-6.072714	0.632972
C	-1.248701	-4.787049	1.013580
C	0.965673	-5.162801	-0.845068
C	0.553357	-3.874817	-0.460946
C	-0.543470	-3.683952	0.453541
O	1.958276	-5.499772	-1.714812
O	-2.245053	-4.459055	1.888193
C	-3.360989	-5.329063	2.033848
H	-4.130667	-4.755694	2.584788
H	-3.112380	-6.238095	2.624118
H	-3.770895	-5.637262	1.047748
C	2.994272	-4.572261	-2.013896
H	3.763700	-5.139743	-2.570853
H	3.448815	-4.153131	-1.090625
H	2.636780	-3.739531	-2.657717
C	-0.827659	-2.306654	0.694943
S	1.174750	-2.306501	-0.999993
C	-0.000000	-1.435185	-0.000000
H	-1.627541	-1.978138	1.370385
C	0.000000	0.000000	0.000000
S	0.783786	0.451972	1.507541
C	2.145261	1.238908	0.718873
C	0.783650	0.451572	-1.067872
C	1.986396	1.148648	-0.686410
S	0.574133	0.327317	-2.805516
C	2.088363	1.207943	-3.054530
C	2.700548	1.564221	-1.862551
F	3.855718	2.236706	-1.819088
C	2.477307	1.430318	-4.456084
O	1.814592	1.038482	-5.406510
O	3.643162	2.112042	-4.569225
C	4.074530	2.355061	-5.916207
H	5.024556	2.911627	-5.833064
H	3.322010	2.951860	-6.470168
H	4.229490	1.400910	-6.459293
H	2.944986	1.702260	1.306486
H	0.311979	-9.143623	0.859314
H	-0.852097	-9.149441	-0.508666
H	0.699874	-1.443175	0.822504
$end

$rem
JOBTYPE		SP
EXCHANGE	HF
CORRELATION	pRIMP2
BASIS		cc-pvtz
METHOD		rimp2
AUX_BASIS	rimp2-cc-pvtz
SOLVENT_METHOD	PCM
PURECART	11111
SYMMETRY	false
MEM_TOTAL	110000
SCF_CONVERGENCE = 6
THRESH=10
GUI = 2
$end

$solvent
dielectric 4.90
$end
--------------------------------------------------------------

             Standard Nuclear Orientation (Angstroms)
    I     Atom           X                Y                Z
 ----------------------------------------------------------------
    1      C      -0.2703580000    -8.5177020000     0.1729040000
    2      C       0.5483630000    -7.6415750000    -0.5246880000
    3      S      -1.4457500000    -7.6386340000     1.1805990000
    4      C       0.2599510000    -6.2647850000    -0.2827270000
    5      H       1.3475590000    -7.9660810000    -1.2030140000
    6      C      -0.8338680000    -6.0727140000     0.6329720000
    7      C      -1.2487010000    -4.7870490000     1.0135800000
    8      C       0.9656730000    -5.1628010000    -0.8450680000
    9      C       0.5533570000    -3.8748170000    -0.4609460000
   10      C      -0.5434700000    -3.6839520000     0.4535410000
   11      O       1.9582760000    -5.4997720000    -1.7148120000
   12      O      -2.2450530000    -4.4590550000     1.8881930000
   13      C      -3.3609890000    -5.3290630000     2.0338480000
   14      H      -4.1306670000    -4.7556940000     2.5847880000
   15      H      -3.1123800000    -6.2380950000     2.6241180000
   16      H      -3.7708950000    -5.6372620000     1.0477480000
   17      C       2.9942720000    -4.5722610000    -2.0138960000
   18      H       3.7637000000    -5.1397430000    -2.5708530000
   19      H       3.4488150000    -4.1531310000    -1.0906250000
   20      H       2.6367800000    -3.7395310000    -2.6577170000
   21      C      -0.8276590000    -2.3066540000     0.6949430000
   22      S       1.1747500000    -2.3065010000    -0.9999930000
   23      C       0.0000000000    -1.4351850000     0.0000000000
   24      H      -1.6275410000    -1.9781380000     1.3703850000
   25      C       0.0000000000     0.0000000000     0.0000000000
   26      S       0.7837860000     0.4519720000     1.5075410000
   27      C       2.1452610000     1.2389080000     0.7188730000
   28      C       0.7836500000     0.4515720000    -1.0678720000
   29      C       1.9863960000     1.1486480000    -0.6864100000
   30      S       0.5741330000     0.3273170000    -2.8055160000
   31      C       2.0883630000     1.2079430000    -3.0545300000
   32      C       2.7005480000     1.5642210000    -1.8625510000
   33      F       3.8557180000     2.2367060000    -1.8190880000
   34      C       2.4773070000     1.4303180000    -4.4560840000
   35      O       1.8145920000     1.0384820000    -5.4065100000
   36      O       3.6431620000     2.1120420000    -4.5692250000
   37      C       4.0745300000     2.3550610000    -5.9162070000
   38      H       5.0245560000     2.9116270000    -5.8330640000
   39      H       3.3220100000     2.9518600000    -6.4701680000
   40      H       4.2294900000     1.4009100000    -6.4592930000
   41      H       2.9449860000     1.7022600000     1.3064860000
   42      H       0.3119790000    -9.1436230000     0.8593140000
   43      H      -0.8520970000    -9.1494410000    -0.5086660000
   44      H       0.6998740000    -1.4431750000     0.8225040000
 ----------------------------------------------------------------

   11   -2755.2597088666      8.92e-07  Convergence criterion met
 Total energy in the final basis set =    -2755.2597088666
        RIMP2         total energy =     -2760.3677044325 a.u.

                    Orbital Energies (a.u.)
 --------------------------------------------------------------

 Alpha MOs
 -- Occupied --
-92.0097 -92.0072 -91.9727 -91.9550 -26.3467 -20.6160 -20.5857 -20.5837
-20.5626 -11.4111 -11.3876 -11.3370 -11.3185 -11.3068 -11.3015 -11.2995
-11.2897 -11.2891 -11.2828 -11.2817 -11.2790 -11.2763 -11.2694 -11.2680
-11.2664 -11.2550 -11.2505 -11.2465 -11.2295  -9.0107  -9.0071  -8.9752
 -8.9576  -6.6913  -6.6903  -6.6901  -6.6880  -6.6872  -6.6862  -6.6562
 -6.6553  -6.6540  -6.6389  -6.6379  -6.6369  -1.6637  -1.4686  -1.4080
 -1.4066  -1.3713  -1.2464  -1.1989  -1.1717  -1.1427  -1.0973  -1.0505
 -1.0421  -1.0312  -1.0007  -0.9927  -0.9680  -0.9570  -0.9474  -0.9408
 -0.8909  -0.8733  -0.8570  -0.8224  -0.7963  -0.7866  -0.7812  -0.7660
 -0.7576  -0.7395  -0.7285  -0.7176  -0.6952  -0.6918  -0.6860  -0.6787
 -0.6751  -0.6645  -0.6541  -0.6468  -0.6368  -0.6307  -0.6169  -0.6141
 -0.6100  -0.6031  -0.5896  -0.5775  -0.5722  -0.5672  -0.5581  -0.5545
 -0.5366  -0.5325  -0.5309  -0.5255  -0.5132  -0.5098  -0.5056  -0.4985
 -0.4886  -0.4806  -0.4766  -0.4741  -0.4680  -0.4623  -0.4540  -0.4442
 -0.4280  -0.3925  -0.3787  -0.3676  -0.3532  -0.3064  -0.2851  -0.2121

          Ground-State Mulliken Net Atomic Charges

     Atom                 Charge (a.u.)
  ----------------------------------------
      1 C                    -0.069057
      2 C                    -0.280567
      3 S                    -0.143116
      4 C                    -0.043558
      5 H                     0.190726
      6 C                    -0.052792
      7 C                     0.219009
      8 C                     0.217231
      9 C                    -0.068210
     10 C                    -0.031972
     11 O                    -0.335792
     12 O                    -0.343558
     13 C                    -0.082761
     14 H                     0.119175
     15 H                     0.092013
     16 H                     0.092756
     17 C                    -0.088518
     18 H                     0.123098
     19 H                     0.089945
     20 H                     0.090748
     21 C                    -0.327494
     22 S                    -0.104403
     23 C                     0.119480
     24 H                     0.202618
     25 C                    -0.169199
     26 S                     0.085802
     27 C                    -0.110050
     28 C                     0.037909
     29 C                    -0.115859
     30 S                     0.072639
     31 C                    -0.151572
     32 C                     0.401078
     33 F                    -0.204782
     34 C                     0.446910
     35 O                    -0.461450
     36 O                    -0.301196
     37 C                    -0.058172
     38 H                     0.121566
     39 H                     0.095442
     40 H                     0.095337
     41 H                     0.221737
     42 H                     0.114369
     43 H                     0.112160
     44 H                     0.182329
  ----------------------------------------
  Sum of atomic charges =     0.000000

                    Cartesian Multipole Moments
 -----------------------------------------------------------------
    Charge (ESU x 10^10)
                 0.0000
    Dipole Moment (Debye)
         X       4.0003      Y       3.6539      Z       2.7958
       Tot       6.0967
    Quadrupole Moments (Debye-Ang)
        XX    -172.4566     XY       5.4955     YY    -198.4958
        XZ     -12.1855     YZ      -1.2817     ZZ    -201.7441

 Total job time:  330.51s(wall), 10821.05s(cpu)
        *  Thank you very much for using Q-Chem.  Have a nice day.  *
