 Q-Chem 5.4, Q-Chem, Inc., Pleasanton, CA (2021)
 Q-Chem 5.4.0 for Intel X86 EM64T Linux

User input:
--------------------------------------------------------------
$molecule
0 1
C	-0.123330	-8.517702	-0.296276
C	0.421494	-7.641575	0.631143
S	-0.911611	-7.638634	-1.628795
C	0.233291	-6.264785	0.305097
H	0.950737	-7.966081	1.535988
C	-0.478557	-6.072714	-0.931114
C	-0.781346	-4.787049	-1.405737
C	0.664542	-5.162801	1.097747
C	0.357854	-3.874817	0.624993
C	-0.352278	-3.683952	-0.613970
O	1.348709	-5.499772	2.226300
O	-1.469658	-4.459055	-2.538827
C	-1.419319	-5.329063	-3.663102
H	-1.828237	-4.755694	-4.516756
H	-2.043793	-6.238095	-3.520769
H	-0.377021	-5.637262	-3.895546
C	1.463351	-4.572261	3.298492
H	1.878237	-5.139743	4.152945
H	0.475176	-4.153131	3.585804
H	2.159469	-3.739531	3.058230
C	-0.540664	-2.306654	-0.935761
S	0.780808	-2.306501	1.330550
C	0.000000	-1.435185	0.000000
H	-1.066946	-1.978138	-1.840780
C	0.000000	0.000000	0.000000
S	0.000474	0.904764	1.507541
C	-0.000295	2.477305	0.718873
C	0.000752	0.904447	-1.067872
C	-0.001560	2.294593	-0.686410
S	0.003602	0.660872	-2.805516
C	-0.001928	2.412546	-3.054530
C	-0.004381	3.120854	-1.862551
F	-0.009185	4.457503	-1.819088
C	-0.000038	2.860570	-4.456084
O	0.007944	2.090724	-5.406510
O	-0.007501	4.211092	-4.569225
C	-0.002278	4.706177	-5.916207
H	-0.009265	5.807207	-5.833064
H	-0.895381	4.352875	-6.470168
H	0.901521	4.363301	-6.459293
H	-0.001708	3.401562	1.306486
H	-0.900433	-9.143623	0.158021
H	0.648903	-9.149441	-0.750822
H	-0.931540	-1.443175	0.546415
$end

$rem
JOBTYPE		SP
EXCHANGE	HF
CORRELATION	pRIMP2
BASIS		cc-pvtz
METHOD		rimp2
AUX_BASIS	rimp2-cc-pvtz
SOLVENT_METHOD	PCM
PURECART	11111
SYMMETRY	false
MEM_TOTAL	110000
SCF_CONVERGENCE = 6
THRESH=10
GUI = 2
$end

$solvent
dielectric 4.90
$end
--------------------------------------------------------------

             Standard Nuclear Orientation (Angstroms)
    I     Atom           X                Y                Z
 ----------------------------------------------------------------
    1      C      -0.1233300000    -8.5177020000    -0.2962760000
    2      C       0.4214940000    -7.6415750000     0.6311430000
    3      S      -0.9116110000    -7.6386340000    -1.6287950000
    4      C       0.2332910000    -6.2647850000     0.3050970000
    5      H       0.9507370000    -7.9660810000     1.5359880000
    6      C      -0.4785570000    -6.0727140000    -0.9311140000
    7      C      -0.7813460000    -4.7870490000    -1.4057370000
    8      C       0.6645420000    -5.1628010000     1.0977470000
    9      C       0.3578540000    -3.8748170000     0.6249930000
   10      C      -0.3522780000    -3.6839520000    -0.6139700000
   11      O       1.3487090000    -5.4997720000     2.2263000000
   12      O      -1.4696580000    -4.4590550000    -2.5388270000
   13      C      -1.4193190000    -5.3290630000    -3.6631020000
   14      H      -1.8282370000    -4.7556940000    -4.5167560000
   15      H      -2.0437930000    -6.2380950000    -3.5207690000
   16      H      -0.3770210000    -5.6372620000    -3.8955460000
   17      C       1.4633510000    -4.5722610000     3.2984920000
   18      H       1.8782370000    -5.1397430000     4.1529450000
   19      H       0.4751760000    -4.1531310000     3.5858040000
   20      H       2.1594690000    -3.7395310000     3.0582300000
   21      C      -0.5406640000    -2.3066540000    -0.9357610000
   22      S       0.7808080000    -2.3065010000     1.3305500000
   23      C       0.0000000000    -1.4351850000     0.0000000000
   24      H      -1.0669460000    -1.9781380000    -1.8407800000
   25      C       0.0000000000     0.0000000000     0.0000000000
   26      S       0.0004740000     0.9047640000     1.5075410000
   27      C      -0.0002950000     2.4773050000     0.7188730000
   28      C       0.0007520000     0.9044470000    -1.0678720000
   29      C      -0.0015600000     2.2945930000    -0.6864100000
   30      S       0.0036020000     0.6608720000    -2.8055160000
   31      C      -0.0019280000     2.4125460000    -3.0545300000
   32      C      -0.0043810000     3.1208540000    -1.8625510000
   33      F      -0.0091850000     4.4575030000    -1.8190880000
   34      C      -0.0000380000     2.8605700000    -4.4560840000
   35      O       0.0079440000     2.0907240000    -5.4065100000
   36      O      -0.0075010000     4.2110920000    -4.5692250000
   37      C      -0.0022780000     4.7061770000    -5.9162070000
   38      H      -0.0092650000     5.8072070000    -5.8330640000
   39      H      -0.8953810000     4.3528750000    -6.4701680000
   40      H       0.9015210000     4.3633010000    -6.4592930000
   41      H      -0.0017080000     3.4015620000     1.3064860000
   42      H      -0.9004330000    -9.1436230000     0.1580210000
   43      H       0.6489030000    -9.1494410000    -0.7508220000
   44      H      -0.9315400000    -1.4431750000     0.5464150000
 ----------------------------------------------------------------

   11   -2755.3447772023      8.62e-07  Convergence criterion met
 Total energy in the final basis set =    -2755.3447772023
        RIMP2         total energy =     -2760.4332450050 a.u.

                    Orbital Energies (a.u.)
 --------------------------------------------------------------

 Alpha MOs
 -- Occupied --
-92.0149 -91.9959 -91.9810 -91.9591 -26.3428 -20.6150 -20.5886 -20.5873
-20.5616 -11.4095 -11.3816 -11.3100 -11.3097 -11.3090 -11.3039 -11.2982
-11.2933 -11.2889 -11.2857 -11.2850 -11.2845 -11.2832 -11.2825 -11.2742
-11.2735 -11.2602 -11.2593 -11.2506 -11.2392  -9.0137  -8.9961  -8.9833
 -8.9616  -6.6945  -6.6940  -6.6934  -6.6771  -6.6764  -6.6752  -6.6644
 -6.6635  -6.6622  -6.6429  -6.6419  -6.6409  -1.6599  -1.4674  -1.4119
 -1.4092  -1.3701  -1.2295  -1.2033  -1.1750  -1.1376  -1.1010  -1.0476
 -1.0446  -1.0237  -1.0044  -0.9988  -0.9629  -0.9593  -0.9493  -0.9406
 -0.8950  -0.8694  -0.8660  -0.8102  -0.8019  -0.7892  -0.7850  -0.7687
 -0.7564  -0.7383  -0.7248  -0.7148  -0.6989  -0.6879  -0.6847  -0.6806
 -0.6739  -0.6626  -0.6571  -0.6491  -0.6376  -0.6316  -0.6209  -0.6155
 -0.6121  -0.5986  -0.5930  -0.5767  -0.5719  -0.5651  -0.5596  -0.5517
 -0.5504  -0.5344  -0.5315  -0.5294  -0.5143  -0.5085  -0.5079  -0.5017
 -0.4854  -0.4806  -0.4777  -0.4742  -0.4724  -0.4677  -0.4610  -0.4471
 -0.4315  -0.3961  -0.3866  -0.3713  -0.3514  -0.2984  -0.2890  -0.2191

          Ground-State Mulliken Net Atomic Charges

     Atom                 Charge (a.u.)
  ----------------------------------------
      1 C                    -0.070517
      2 C                    -0.253953
      3 S                    -0.133130
      4 C                    -0.046915
      5 H                     0.194124
      6 C                    -0.051682
      7 C                     0.224718
      8 C                     0.229701
      9 C                    -0.076728
     10 C                    -0.056944
     11 O                    -0.333990
     12 O                    -0.343475
     13 C                    -0.082882
     14 H                     0.121091
     15 H                     0.091936
     16 H                     0.093124
     17 C                    -0.087876
     18 H                     0.124156
     19 H                     0.092706
     20 H                     0.090386
     21 C                    -0.274228
     22 S                    -0.086557
     23 C                     0.129350
     24 H                     0.205723
     25 C                    -0.100664
     26 S                     0.071986
     27 C                    -0.201005
     28 C                     0.033493
     29 C                    -0.124640
     30 S                    -0.005079
     31 C                    -0.158027
     32 C                     0.403850
     33 F                    -0.207656
     34 C                     0.443532
     35 O                    -0.460378
     36 O                    -0.300373
     37 C                    -0.058745
     38 H                     0.121490
     39 H                     0.095110
     40 H                     0.095201
     41 H                     0.218003
     42 H                     0.118140
     43 H                     0.115982
     44 H                     0.201640
  ----------------------------------------
  Sum of atomic charges =     0.000000

                    Cartesian Multipole Moments
 -----------------------------------------------------------------
    Charge (ESU x 10^10)
                 0.0000
    Dipole Moment (Debye)
         X      -0.4746      Y       1.9361      Z       3.5429
       Tot       4.0652
    Quadrupole Moments (Debye-Ang)
        XX    -201.2249     XY      -2.0147     YY    -171.0955
        XZ       3.6369     YZ     -11.1951     ZZ    -188.6068

 Total job time:  324.10s(wall), 10573.88s(cpu)
        *  Thank you very much for using Q-Chem.  Have a nice day.  *
