 Q-Chem 5.4, Q-Chem, Inc., Pleasanton, CA (2021)
 Q-Chem 5.4.0 for Intel X86 EM64T Linux

User input:
--------------------------------------------------------------
$molecule
0 1
C	0.313191	-8.517702	-0.070009
C	-0.694746	-7.641575	0.305494
S	1.762350	-7.638634	-0.614924
C	-0.340973	-6.264785	0.176768
H	-1.677747	-7.966081	0.669571
C	1.000069	-6.072714	-0.309600
C	1.520060	-4.787049	-0.525372
C	-1.196466	-5.162801	0.463825
C	-0.677639	-3.874817	0.243888
C	0.665815	-3.683952	-0.240312
O	-2.426678	-5.499772	0.941626
O	2.755460	-4.459055	-1.006468
C	3.853913	-5.329063	-0.761666
H	4.765607	-4.755694	-1.016135
H	3.822182	-6.238095	-1.401368
H	3.901833	-5.637262	0.305161
C	-3.502489	-4.572261	0.868342
H	-4.416005	-5.139743	1.128551
H	-3.613841	-4.153131	-0.154712
H	-3.386756	-3.739531	1.595605
C	1.015430	-2.306654	-0.369957
S	-1.445922	-2.306501	0.537898
C	0.000000	-1.435185	0.000000
H	1.998088	-1.978138	-0.731088
C	0.000000	0.000000	0.000000
S	0.693394	0.581209	1.507541
C	1.897536	1.592607	0.718873
C	0.693330	0.580791	-1.067872
C	1.756758	1.476132	-0.686410
S	0.508573	0.422041	-2.805516
C	1.846879	1.552232	-3.054530
C	2.387897	2.009402	-1.862551
F	3.408741	2.872264	-1.819088
C	2.191300	1.838768	-4.456084
O	1.606694	1.337806	-5.406510
O	3.221062	2.712584	-4.569225
C	3.603677	3.026817	-5.916207
H	4.442623	3.739898	-5.833064
H	2.758956	3.483875	-6.470168
H	3.921969	2.114070	-6.459293
H	2.604650	2.187790	1.306486
H	0.000738	-9.143623	-0.914194
H	0.626735	-9.149441	0.769424
H	-0.376353	-1.443175	-1.012272
$end

$rem
JOBTYPE		SP
EXCHANGE	HF
CORRELATION	pRIMP2
BASIS		cc-pvtz
METHOD		rimp2
AUX_BASIS	rimp2-cc-pvtz
SOLVENT_METHOD	PCM
PURECART	11111
SYMMETRY	false
MEM_TOTAL	110000
SCF_CONVERGENCE = 6
THRESH=10
GUI = 2
$end

$solvent
dielectric 4.90
$end
--------------------------------------------------------------

             Standard Nuclear Orientation (Angstroms)
    I     Atom           X                Y                Z
 ----------------------------------------------------------------
    1      C       0.3131910000    -8.5177020000    -0.0700090000
    2      C      -0.6947460000    -7.6415750000     0.3054940000
    3      S       1.7623500000    -7.6386340000    -0.6149240000
    4      C      -0.3409730000    -6.2647850000     0.1767680000
    5      H      -1.6777470000    -7.9660810000     0.6695710000
    6      C       1.0000690000    -6.0727140000    -0.3096000000
    7      C       1.5200600000    -4.7870490000    -0.5253720000
    8      C      -1.1964660000    -5.1628010000     0.4638250000
    9      C      -0.6776390000    -3.8748170000     0.2438880000
   10      C       0.6658150000    -3.6839520000    -0.2403120000
   11      O      -2.4266780000    -5.4997720000     0.9416260000
   12      O       2.7554600000    -4.4590550000    -1.0064680000
   13      C       3.8539130000    -5.3290630000    -0.7616660000
   14      H       4.7656070000    -4.7556940000    -1.0161350000
   15      H       3.8221820000    -6.2380950000    -1.4013680000
   16      H       3.9018330000    -5.6372620000     0.3051610000
   17      C      -3.5024890000    -4.5722610000     0.8683420000
   18      H      -4.4160050000    -5.1397430000     1.1285510000
   19      H      -3.6138410000    -4.1531310000    -0.1547120000
   20      H      -3.3867560000    -3.7395310000     1.5956050000
   21      C       1.0154300000    -2.3066540000    -0.3699570000
   22      S      -1.4459220000    -2.3065010000     0.5378980000
   23      C       0.0000000000    -1.4351850000     0.0000000000
   24      H       1.9980880000    -1.9781380000    -0.7310880000
   25      C       0.0000000000     0.0000000000     0.0000000000
   26      S       0.6933940000     0.5812090000     1.5075410000
   27      C       1.8975360000     1.5926070000     0.7188730000
   28      C       0.6933300000     0.5807910000    -1.0678720000
   29      C       1.7567580000     1.4761320000    -0.6864100000
   30      S       0.5085730000     0.4220410000    -2.8055160000
   31      C       1.8468790000     1.5522320000    -3.0545300000
   32      C       2.3878970000     2.0094020000    -1.8625510000
   33      F       3.4087410000     2.8722640000    -1.8190880000
   34      C       2.1913000000     1.8387680000    -4.4560840000
   35      O       1.6066940000     1.3378060000    -5.4065100000
   36      O       3.2210620000     2.7125840000    -4.5692250000
   37      C       3.6036770000     3.0268170000    -5.9162070000
   38      H       4.4426230000     3.7398980000    -5.8330640000
   39      H       2.7589560000     3.4838750000    -6.4701680000
   40      H       3.9219690000     2.1140700000    -6.4592930000
   41      H       2.6046500000     2.1877900000     1.3064860000
   42      H       0.0007380000    -9.1436230000    -0.9141940000
   43      H       0.6267350000    -9.1494410000     0.7694240000
   44      H      -0.3763530000    -1.4431750000    -1.0122720000
 ----------------------------------------------------------------

   11   -2755.3045876316      6.81e-07  Convergence criterion met
 Total energy in the final basis set =    -2755.3045876316
        RIMP2         total energy =     -2760.4022744205 a.u.

                    Orbital Energies (a.u.)
 --------------------------------------------------------------

 Alpha MOs
 -- Occupied --
-92.0091 -92.0089 -91.9707 -91.9568 -26.3471 -20.6164 -20.5864 -20.5846
-20.5629 -11.4115 -11.3879 -11.3294 -11.3177 -11.3079 -11.3033 -11.3004
-11.2899 -11.2889 -11.2827 -11.2824 -11.2798 -11.2793 -11.2748 -11.2709
-11.2696 -11.2564 -11.2548 -11.2482 -11.2335  -9.0088  -9.0087  -8.9730
 -8.9594  -6.6896  -6.6895  -6.6889  -6.6886  -6.6884  -6.6879  -6.6541
 -6.6533  -6.6520  -6.6406  -6.6397  -6.6387  -1.6641  -1.4689  -1.4087
 -1.4074  -1.3717  -1.2380  -1.2001  -1.1719  -1.1404  -1.0996  -1.0500
 -1.0436  -1.0265  -1.0010  -0.9949  -0.9647  -0.9585  -0.9482  -0.9418
 -0.8912  -0.8730  -0.8608  -0.8152  -0.7980  -0.7905  -0.7820  -0.7662
 -0.7601  -0.7344  -0.7288  -0.7129  -0.7010  -0.6935  -0.6865  -0.6793
 -0.6755  -0.6661  -0.6544  -0.6474  -0.6368  -0.6293  -0.6186  -0.6145
 -0.6108  -0.6017  -0.5927  -0.5748  -0.5735  -0.5658  -0.5560  -0.5557
 -0.5445  -0.5323  -0.5260  -0.5221  -0.5128  -0.5098  -0.5059  -0.4999
 -0.4860  -0.4823  -0.4766  -0.4746  -0.4678  -0.4660  -0.4571  -0.4441
 -0.4180  -0.3993  -0.3815  -0.3681  -0.3528  -0.3103  -0.2869  -0.2178

          Ground-State Mulliken Net Atomic Charges

     Atom                 Charge (a.u.)
  ----------------------------------------
      1 C                    -0.069639
      2 C                    -0.269326
      3 S                    -0.138566
      4 C                    -0.041795
      5 H                     0.192197
      6 C                    -0.052211
      7 C                     0.223226
      8 C                     0.222404
      9 C                    -0.073995
     10 C                    -0.049064
     11 O                    -0.336103
     12 O                    -0.343875
     13 C                    -0.082730
     14 H                     0.119351
     15 H                     0.092289
     16 H                     0.092500
     17 C                    -0.086538
     18 H                     0.122708
     19 H                     0.091526
     20 H                     0.090136
     21 C                    -0.265667
     22 S                    -0.098556
     23 C                     0.071897
     24 H                     0.206799
     25 C                    -0.137634
     26 S                     0.094392
     27 C                    -0.136015
     28 C                    -0.005269
     29 C                    -0.094328
     30 S                     0.045823
     31 C                    -0.153985
     32 C                     0.401568
     33 F                    -0.203842
     34 C                     0.447876
     35 O                    -0.461243
     36 O                    -0.301206
     37 C                    -0.058162
     38 H                     0.121689
     39 H                     0.095434
     40 H                     0.095527
     41 H                     0.219580
     42 H                     0.116122
     43 H                     0.113668
     44 H                     0.183037
  ----------------------------------------
  Sum of atomic charges =     0.000000

                    Cartesian Multipole Moments
 -----------------------------------------------------------------
    Charge (ESU x 10^10)
                 0.0000
    Dipole Moment (Debye)
         X       2.8364      Y       3.4489      Z       1.9793
       Tot       4.8844
    Quadrupole Moments (Debye-Ang)
        XX    -173.4278     XY      11.9439     YY    -188.7921
        XZ      -5.9398     YZ      -6.1086     ZZ    -204.8822

 Total job time:  325.06s(wall), 10589.83s(cpu)
        *  Thank you very much for using Q-Chem.  Have a nice day.  *
