 Q-Chem 5.4, Q-Chem, Inc., Pleasanton, CA (2021)
 Q-Chem 5.4.0 for Intel X86 EM64T Linux

User input:
--------------------------------------------------------------
$molecule
0 1
C	0.318247	-8.517702	0.041330
C	-0.757333	-7.641575	0.049453
S	1.866383	-7.638634	0.024919
C	-0.380867	-6.264785	0.049488
H	-1.805573	-7.966081	0.055368
C	1.045647	-6.072714	0.051115
C	1.608077	-4.787049	0.026203
C	-1.282948	-5.162801	0.026637
C	-0.720187	-3.874817	-0.002586
C	0.707853	-3.683952	0.001903
O	-2.602386	-5.499772	0.054867
O	2.933517	-4.459055	-0.003348
C	3.881999	-5.329063	0.602384
H	4.825744	-4.755694	0.675079
H	4.070972	-6.238095	-0.009592
H	3.562152	-5.637262	1.621263
C	-3.588253	-4.572261	-0.381947
H	-4.535674	-5.139743	-0.449872
H	-3.342986	-4.153131	-1.381388
H	-3.728239	-3.739531	0.341040
C	1.080725	-2.306654	-0.000348
S	-1.542694	-2.306501	0.010924
C	0.000000	-1.435185	0.000000
H	2.127635	-1.978138	-0.003612
C	0.000000	0.000000	0.000000
S	0.000474	0.904764	1.507541
C	-0.000295	2.477305	0.718873
C	0.000752	0.904447	-1.067872
C	-0.001560	2.294593	-0.686410
S	0.003602	0.660872	-2.805516
C	-0.001928	2.412546	-3.054530
C	-0.004381	3.120854	-1.862551
F	-0.009185	4.457503	-1.819088
C	-0.000038	2.860570	-4.456084
O	0.007944	2.090724	-5.406510
O	-0.007501	4.211092	-4.569225
C	-0.002278	4.706177	-5.916207
H	-0.009265	5.807207	-5.833064
H	-0.895381	4.352875	-6.470168
H	0.901521	4.363301	-6.459293
H	-0.001708	3.401562	1.306486
H	0.313367	-9.143623	-0.858809
H	0.325780	-9.149441	0.937378
H	-0.007439	-1.443175	-1.079945
$end

$rem
JOBTYPE		SP
EXCHANGE	HF
CORRELATION	pRIMP2
BASIS		cc-pvtz
METHOD		rimp2
AUX_BASIS	rimp2-cc-pvtz
SOLVENT_METHOD	PCM
PURECART	11111
SYMMETRY	false
MEM_TOTAL	110000
SCF_CONVERGENCE = 6
THRESH=10
GUI = 2
$end

$solvent
dielectric 4.90
$end
--------------------------------------------------------------

             Standard Nuclear Orientation (Angstroms)
    I     Atom           X                Y                Z
 ----------------------------------------------------------------
    1      C       0.3182470000    -8.5177020000     0.0413300000
    2      C      -0.7573330000    -7.6415750000     0.0494530000
    3      S       1.8663830000    -7.6386340000     0.0249190000
    4      C      -0.3808670000    -6.2647850000     0.0494880000
    5      H      -1.8055730000    -7.9660810000     0.0553680000
    6      C       1.0456470000    -6.0727140000     0.0511150000
    7      C       1.6080770000    -4.7870490000     0.0262030000
    8      C      -1.2829480000    -5.1628010000     0.0266370000
    9      C      -0.7201870000    -3.8748170000    -0.0025860000
   10      C       0.7078530000    -3.6839520000     0.0019030000
   11      O      -2.6023860000    -5.4997720000     0.0548670000
   12      O       2.9335170000    -4.4590550000    -0.0033480000
   13      C       3.8819990000    -5.3290630000     0.6023840000
   14      H       4.8257440000    -4.7556940000     0.6750790000
   15      H       4.0709720000    -6.2380950000    -0.0095920000
   16      H       3.5621520000    -5.6372620000     1.6212630000
   17      C      -3.5882530000    -4.5722610000    -0.3819470000
   18      H      -4.5356740000    -5.1397430000    -0.4498720000
   19      H      -3.3429860000    -4.1531310000    -1.3813880000
   20      H      -3.7282390000    -3.7395310000     0.3410400000
   21      C       1.0807250000    -2.3066540000    -0.0003480000
   22      S      -1.5426940000    -2.3065010000     0.0109240000
   23      C       0.0000000000    -1.4351850000     0.0000000000
   24      H       2.1276350000    -1.9781380000    -0.0036120000
   25      C       0.0000000000     0.0000000000     0.0000000000
   26      S       0.0004740000     0.9047640000     1.5075410000
   27      C      -0.0002950000     2.4773050000     0.7188730000
   28      C       0.0007520000     0.9044470000    -1.0678720000
   29      C      -0.0015600000     2.2945930000    -0.6864100000
   30      S       0.0036020000     0.6608720000    -2.8055160000
   31      C      -0.0019280000     2.4125460000    -3.0545300000
   32      C      -0.0043810000     3.1208540000    -1.8625510000
   33      F      -0.0091850000     4.4575030000    -1.8190880000
   34      C      -0.0000380000     2.8605700000    -4.4560840000
   35      O       0.0079440000     2.0907240000    -5.4065100000
   36      O      -0.0075010000     4.2110920000    -4.5692250000
   37      C      -0.0022780000     4.7061770000    -5.9162070000
   38      H      -0.0092650000     5.8072070000    -5.8330640000
   39      H      -0.8953810000     4.3528750000    -6.4701680000
   40      H       0.9015210000     4.3633010000    -6.4592930000
   41      H      -0.0017080000     3.4015620000     1.3064860000
   42      H       0.3133670000    -9.1436230000    -0.8588090000
   43      H       0.3257800000    -9.1494410000     0.9373780000
   44      H      -0.0074390000    -1.4431750000    -1.0799450000
 ----------------------------------------------------------------

   11   -2755.3488166922      6.76e-07  Convergence criterion met
 Total energy in the final basis set =    -2755.3488166922
        RIMP2         total energy =     -2760.4361728080 a.u.

                    Orbital Energies (a.u.)
 --------------------------------------------------------------

 Alpha MOs
 -- Occupied --
-92.0114 -92.0000 -91.9767 -91.9581 -26.3445 -20.6153 -20.5871 -20.5867
-20.5618 -11.4100 -11.3841 -11.3115 -11.3089 -11.3070 -11.3043 -11.3013
-11.2986 -11.2892 -11.2851 -11.2841 -11.2828 -11.2825 -11.2801 -11.2728
-11.2715 -11.2580 -11.2575 -11.2497 -11.2369  -9.0103  -9.0002  -8.9789
 -8.9608  -6.6910  -6.6904  -6.6899  -6.6812  -6.6805  -6.6794  -6.6600
 -6.6591  -6.6578  -6.6420  -6.6411  -6.6400  -1.6615  -1.4678  -1.4102
 -1.4088  -1.3705  -1.2294  -1.2023  -1.1733  -1.1368  -1.1008  -1.0466
 -1.0453  -1.0234  -1.0034  -0.9968  -0.9627  -0.9585  -0.9484  -0.9413
 -0.8931  -0.8711  -0.8649  -0.8135  -0.7953  -0.7899  -0.7846  -0.7680
 -0.7589  -0.7352  -0.7262  -0.7102  -0.7009  -0.6948  -0.6853  -0.6797
 -0.6744  -0.6649  -0.6554  -0.6484  -0.6347  -0.6304  -0.6200  -0.6148
 -0.6113  -0.5990  -0.5921  -0.5777  -0.5702  -0.5648  -0.5576  -0.5545
 -0.5484  -0.5316  -0.5306  -0.5257  -0.5129  -0.5086  -0.5070  -0.5015
 -0.4855  -0.4808  -0.4764  -0.4745  -0.4713  -0.4674  -0.4605  -0.4461
 -0.4218  -0.4012  -0.3851  -0.3700  -0.3505  -0.3022  -0.2892  -0.2210

          Ground-State Mulliken Net Atomic Charges

     Atom                 Charge (a.u.)
  ----------------------------------------
      1 C                    -0.070207
      2 C                    -0.259140
      3 S                    -0.135471
      4 C                    -0.043979
      5 H                     0.193554
      6 C                    -0.052686
      7 C                     0.228106
      8 C                     0.226431
      9 C                    -0.079852
     10 C                    -0.064671
     11 O                    -0.335063
     12 O                    -0.343154
     13 C                    -0.082597
     14 H                     0.120011
     15 H                     0.092027
     16 H                     0.092559
     17 C                    -0.086594
     18 H                     0.122839
     19 H                     0.092828
     20 H                     0.090236
     21 C                    -0.233379
     22 S                    -0.070635
     23 C                     0.063746
     24 H                     0.205114
     25 C                    -0.090991
     26 S                     0.088170
     27 C                    -0.178154
     28 C                     0.019361
     29 C                    -0.113323
     30 S                    -0.000263
     31 C                    -0.160412
     32 C                     0.400250
     33 F                    -0.205841
     34 C                     0.443845
     35 O                    -0.461368
     36 O                    -0.300775
     37 C                    -0.058665
     38 H                     0.121523
     39 H                     0.095256
     40 H                     0.095190
     41 H                     0.217483
     42 H                     0.117387
     43 H                     0.114927
     44 H                     0.186376
  ----------------------------------------
  Sum of atomic charges =     0.000000

                    Cartesian Multipole Moments
 -----------------------------------------------------------------
    Charge (ESU x 10^10)
                -0.0000
    Dipole Moment (Debye)
         X      -0.1290      Y       2.9532      Z       2.3781
       Tot       3.7939
    Quadrupole Moments (Debye-Ang)
        XX    -185.3863     XY       3.7878     YY    -174.4365
        XZ       5.7978     YZ      -7.6958     ZZ    -204.5271

 Total job time:  336.29s(wall), 10751.44s(cpu)
        *  Thank you very much for using Q-Chem.  Have a nice day.  *
