 Q-Chem 5.4, Q-Chem, Inc., Pleasanton, CA (2021)
 Q-Chem 5.4.0 for Intel X86 EM64T Linux

User input:
--------------------------------------------------------------
$molecule
0 1
C	-0.172904	-8.517702	-0.270358
C	0.524688	-7.641575	0.548363
S	-1.180599	-7.638634	-1.445750
C	0.282727	-6.264785	0.259951
H	1.203014	-7.966081	1.347559
C	-0.632972	-6.072714	-0.833868
C	-1.013580	-4.787049	-1.248701
C	0.845068	-5.162801	0.965673
C	0.460946	-3.874817	0.553357
C	-0.453541	-3.683952	-0.543470
O	1.714812	-5.499772	1.958276
O	-1.888193	-4.459055	-2.245053
C	-2.033848	-5.329063	-3.360989
H	-2.584788	-4.755694	-4.130667
H	-2.624118	-6.238095	-3.112380
H	-1.047748	-5.637262	-3.770895
C	2.013896	-4.572261	2.994272
H	2.570853	-5.139743	3.763700
H	1.090625	-4.153131	3.448815
H	2.657717	-3.739531	2.636780
C	-0.694943	-2.306654	-0.827659
S	0.999993	-2.306501	1.174750
C	0.000000	-1.435185	0.000000
H	-1.370385	-1.978138	-1.627541
C	0.000000	0.000000	0.000000
S	0.000474	0.904764	1.507541
C	-0.000295	2.477305	0.718873
C	0.000752	0.904447	-1.067872
C	-0.001560	2.294593	-0.686410
S	0.003602	0.660872	-2.805516
C	-0.001928	2.412546	-3.054530
C	-0.004381	3.120854	-1.862551
F	-0.009185	4.457503	-1.819088
C	-0.000038	2.860570	-4.456084
O	0.007944	2.090724	-5.406510
O	-0.007501	4.211092	-4.569225
C	-0.002278	4.706177	-5.916207
H	-0.009265	5.807207	-5.833064
H	-0.895381	4.352875	-6.470168
H	0.901521	4.363301	-6.459293
H	-0.001708	3.401562	1.306486
H	-0.859314	-9.143623	0.311979
H	0.508666	-9.149441	-0.852097
H	-0.822504	-1.443175	0.699874
$end

$rem
JOBTYPE		SP
EXCHANGE	HF
CORRELATION	pRIMP2
BASIS		cc-pvtz
METHOD		rimp2
AUX_BASIS	rimp2-cc-pvtz
SOLVENT_METHOD	PCM
PURECART	11111
SYMMETRY	false
MEM_TOTAL	110000
SCF_CONVERGENCE = 6
THRESH=10
GUI = 2
$end

$solvent
dielectric 4.90
$end
--------------------------------------------------------------

             Standard Nuclear Orientation (Angstroms)
    I     Atom           X                Y                Z
 ----------------------------------------------------------------
    1      C      -0.1729040000    -8.5177020000    -0.2703580000
    2      C       0.5246880000    -7.6415750000     0.5483630000
    3      S      -1.1805990000    -7.6386340000    -1.4457500000
    4      C       0.2827270000    -6.2647850000     0.2599510000
    5      H       1.2030140000    -7.9660810000     1.3475590000
    6      C      -0.6329720000    -6.0727140000    -0.8338680000
    7      C      -1.0135800000    -4.7870490000    -1.2487010000
    8      C       0.8450680000    -5.1628010000     0.9656730000
    9      C       0.4609460000    -3.8748170000     0.5533570000
   10      C      -0.4535410000    -3.6839520000    -0.5434700000
   11      O       1.7148120000    -5.4997720000     1.9582760000
   12      O      -1.8881930000    -4.4590550000    -2.2450530000
   13      C      -2.0338480000    -5.3290630000    -3.3609890000
   14      H      -2.5847880000    -4.7556940000    -4.1306670000
   15      H      -2.6241180000    -6.2380950000    -3.1123800000
   16      H      -1.0477480000    -5.6372620000    -3.7708950000
   17      C       2.0138960000    -4.5722610000     2.9942720000
   18      H       2.5708530000    -5.1397430000     3.7637000000
   19      H       1.0906250000    -4.1531310000     3.4488150000
   20      H       2.6577170000    -3.7395310000     2.6367800000
   21      C      -0.6949430000    -2.3066540000    -0.8276590000
   22      S       0.9999930000    -2.3065010000     1.1747500000
   23      C       0.0000000000    -1.4351850000     0.0000000000
   24      H      -1.3703850000    -1.9781380000    -1.6275410000
   25      C       0.0000000000     0.0000000000     0.0000000000
   26      S       0.0004740000     0.9047640000     1.5075410000
   27      C      -0.0002950000     2.4773050000     0.7188730000
   28      C       0.0007520000     0.9044470000    -1.0678720000
   29      C      -0.0015600000     2.2945930000    -0.6864100000
   30      S       0.0036020000     0.6608720000    -2.8055160000
   31      C      -0.0019280000     2.4125460000    -3.0545300000
   32      C      -0.0043810000     3.1208540000    -1.8625510000
   33      F      -0.0091850000     4.4575030000    -1.8190880000
   34      C      -0.0000380000     2.8605700000    -4.4560840000
   35      O       0.0079440000     2.0907240000    -5.4065100000
   36      O      -0.0075010000     4.2110920000    -4.5692250000
   37      C      -0.0022780000     4.7061770000    -5.9162070000
   38      H      -0.0092650000     5.8072070000    -5.8330640000
   39      H      -0.8953810000     4.3528750000    -6.4701680000
   40      H       0.9015210000     4.3633010000    -6.4592930000
   41      H      -0.0017080000     3.4015620000     1.3064860000
   42      H      -0.8593140000    -9.1436230000     0.3119790000
   43      H       0.5086660000    -9.1494410000    -0.8520970000
   44      H      -0.8225040000    -1.4431750000     0.6998740000
 ----------------------------------------------------------------

   11   -2755.3451311994      8.40e-07  Convergence criterion met
 Total energy in the final basis set =    -2755.3451311994
        RIMP2         total energy =     -2760.4329561810 a.u.

                    Orbital Energies (a.u.)
 --------------------------------------------------------------

 Alpha MOs
 -- Occupied --
-92.0153 -91.9963 -91.9798 -91.9586 -26.3430 -20.6150 -20.5879 -20.5871
-20.5616 -11.4095 -11.3819 -11.3094 -11.3089 -11.3067 -11.3063 -11.2982
-11.2950 -11.2889 -11.2853 -11.2847 -11.2843 -11.2824 -11.2820 -11.2736
-11.2732 -11.2593 -11.2588 -11.2502 -11.2381  -9.0141  -8.9965  -8.9821
 -8.9612  -6.6949  -6.6944  -6.6938  -6.6776  -6.6768  -6.6757  -6.6632
 -6.6623  -6.6610  -6.6425  -6.6415  -6.6405  -1.6601  -1.4675  -1.4113
 -1.4090  -1.3702  -1.2292  -1.2031  -1.1744  -1.1376  -1.1005  -1.0470
 -1.0445  -1.0239  -1.0041  -0.9982  -0.9627  -0.9592  -0.9489  -0.9405
 -0.8944  -0.8690  -0.8664  -0.8110  -0.8014  -0.7888  -0.7850  -0.7682
 -0.7565  -0.7381  -0.7250  -0.7156  -0.6985  -0.6869  -0.6847  -0.6803
 -0.6740  -0.6619  -0.6567  -0.6488  -0.6365  -0.6313  -0.6205  -0.6152
 -0.6120  -0.5988  -0.5926  -0.5766  -0.5718  -0.5651  -0.5591  -0.5519
 -0.5501  -0.5338  -0.5311  -0.5288  -0.5139  -0.5082  -0.5073  -0.5017
 -0.4854  -0.4800  -0.4780  -0.4743  -0.4727  -0.4679  -0.4609  -0.4466
 -0.4296  -0.3969  -0.3859  -0.3708  -0.3516  -0.2988  -0.2889  -0.2193

          Ground-State Mulliken Net Atomic Charges

     Atom                 Charge (a.u.)
  ----------------------------------------
      1 C                    -0.070336
      2 C                    -0.256940
      3 S                    -0.133916
      4 C                    -0.045711
      5 H                     0.193792
      6 C                    -0.051903
      7 C                     0.224514
      8 C                     0.228624
      9 C                    -0.077996
     10 C                    -0.060143
     11 O                    -0.334326
     12 O                    -0.343436
     13 C                    -0.082872
     14 H                     0.120770
     15 H                     0.091936
     16 H                     0.093110
     17 C                    -0.087534
     18 H                     0.123780
     19 H                     0.092255
     20 H                     0.090393
     21 C                    -0.265167
     22 S                    -0.082019
     23 C                     0.116166
     24 H                     0.210319
     25 C                    -0.111213
     26 S                     0.078308
     27 C                    -0.193563
     28 C                     0.035281
     29 C                    -0.122884
     30 S                    -0.000984
     31 C                    -0.156005
     32 C                     0.401595
     33 F                    -0.207540
     34 C                     0.443720
     35 O                    -0.460427
     36 O                    -0.300413
     37 C                    -0.058704
     38 H                     0.121463
     39 H                     0.095100
     40 H                     0.095215
     41 H                     0.218226
     42 H                     0.117703
     43 H                     0.115498
     44 H                     0.196259
  ----------------------------------------
  Sum of atomic charges =     0.000000

                    Cartesian Multipole Moments
 -----------------------------------------------------------------
    Charge (ESU x 10^10)
                 0.0000
    Dipole Moment (Debye)
         X      -0.3960      Y       2.3171      Z       3.5458
       Tot       4.2542
    Quadrupole Moments (Debye-Ang)
        XX    -199.5085     XY      -2.4816     YY    -172.7158
        XZ       6.3405     YZ     -10.5756     ZZ    -190.3198

 Total job time:  339.20s(wall), 10591.83s(cpu)
        *  Thank you very much for using Q-Chem.  Have a nice day.  *
