 Q-Chem 5.4, Q-Chem, Inc., Pleasanton, CA (2021)
 Q-Chem 5.4.0 for Intel X86 EM64T Linux

User input:
--------------------------------------------------------------
$molecule
0 1
C	0.095966	-8.517702	-0.306235
C	-0.082807	-7.641575	0.754415
S	0.348635	-7.638634	-1.833702
C	-0.017401	-6.264785	0.383675
H	-0.259008	-7.966081	1.787757
C	0.231913	-6.072714	-1.020885
C	0.305044	-4.787049	-1.579097
C	-0.196549	-5.162801	1.268082
C	-0.127606	-3.874817	0.708796
C	0.124792	-3.683952	-0.696769
O	-0.397867	-5.499772	2.572378
O	0.506103	-4.459055	-2.889532
C	1.267335	-5.329063	-3.718420
H	1.502804	-4.755694	-4.635204
H	0.697471	-6.238095	-4.010790
H	2.215194	-5.637262	-3.226506
C	-0.999238	-4.572261	3.467415
H	-1.230649	-5.139743	4.388648
H	-1.940905	-4.153131	3.052323
H	-0.311543	-3.739531	3.730819
C	0.187323	-2.306654	-1.064366
S	-0.257128	-2.306501	1.521154
C	0.000000	-1.435185	0.000000
H	0.365903	-1.978138	-2.095939
C	0.000000	0.000000	0.000000
S	0.234628	0.873813	1.507541
C	0.640889	2.392969	0.718873
C	0.234815	0.873434	-1.067872
C	0.592377	2.216811	-0.686410
S	0.174526	0.637422	-2.805516
C	0.622551	2.330840	-3.054530
C	0.803505	3.015647	-1.862551
F	1.144815	4.307994	-1.819088
C	0.740334	2.763108	-4.456084
O	0.548793	2.017428	-5.406510
O	1.082665	4.069544	-4.569225
C	1.215848	4.546407	-5.916207
H	1.494066	5.611729	-5.833064
H	0.261736	4.436296	-6.470168
H	2.000108	3.981294	-6.459293
H	0.878739	3.286099	1.306486
H	-0.791346	-9.143623	-0.457736
H	0.979708	-9.149441	-0.158056
H	-1.064830	-1.443175	-0.180205
$end

$rem
JOBTYPE		SP
EXCHANGE	HF
CORRELATION	pRIMP2
BASIS		cc-pvtz
METHOD		rimp2
AUX_BASIS	rimp2-cc-pvtz
SOLVENT_METHOD	PCM
PURECART	11111
SYMMETRY	false
MEM_TOTAL	110000
SCF_CONVERGENCE = 6
THRESH=10
GUI = 2
$end

$solvent
dielectric 4.90
$end
--------------------------------------------------------------

             Standard Nuclear Orientation (Angstroms)
    I     Atom           X                Y                Z
 ----------------------------------------------------------------
    1      C       0.0959660000    -8.5177020000    -0.3062350000
    2      C      -0.0828070000    -7.6415750000     0.7544150000
    3      S       0.3486350000    -7.6386340000    -1.8337020000
    4      C      -0.0174010000    -6.2647850000     0.3836750000
    5      H      -0.2590080000    -7.9660810000     1.7877570000
    6      C       0.2319130000    -6.0727140000    -1.0208850000
    7      C       0.3050440000    -4.7870490000    -1.5790970000
    8      C      -0.1965490000    -5.1628010000     1.2680820000
    9      C      -0.1276060000    -3.8748170000     0.7087960000
   10      C       0.1247920000    -3.6839520000    -0.6967690000
   11      O      -0.3978670000    -5.4997720000     2.5723780000
   12      O       0.5061030000    -4.4590550000    -2.8895320000
   13      C       1.2673350000    -5.3290630000    -3.7184200000
   14      H       1.5028040000    -4.7556940000    -4.6352040000
   15      H       0.6974710000    -6.2380950000    -4.0107900000
   16      H       2.2151940000    -5.6372620000    -3.2265060000
   17      C      -0.9992380000    -4.5722610000     3.4674150000
   18      H      -1.2306490000    -5.1397430000     4.3886480000
   19      H      -1.9409050000    -4.1531310000     3.0523230000
   20      H      -0.3115430000    -3.7395310000     3.7308190000
   21      C       0.1873230000    -2.3066540000    -1.0643660000
   22      S      -0.2571280000    -2.3065010000     1.5211540000
   23      C       0.0000000000    -1.4351850000     0.0000000000
   24      H       0.3659030000    -1.9781380000    -2.0959390000
   25      C       0.0000000000     0.0000000000     0.0000000000
   26      S       0.2346280000     0.8738130000     1.5075410000
   27      C       0.6408890000     2.3929690000     0.7188730000
   28      C       0.2348150000     0.8734340000    -1.0678720000
   29      C       0.5923770000     2.2168110000    -0.6864100000
   30      S       0.1745260000     0.6374220000    -2.8055160000
   31      C       0.6225510000     2.3308400000    -3.0545300000
   32      C       0.8035050000     3.0156470000    -1.8625510000
   33      F       1.1448150000     4.3079940000    -1.8190880000
   34      C       0.7403340000     2.7631080000    -4.4560840000
   35      O       0.5487930000     2.0174280000    -5.4065100000
   36      O       1.0826650000     4.0695440000    -4.5692250000
   37      C       1.2158480000     4.5464070000    -5.9162070000
   38      H       1.4940660000     5.6117290000    -5.8330640000
   39      H       0.2617360000     4.4362960000    -6.4701680000
   40      H       2.0001080000     3.9812940000    -6.4592930000
   41      H       0.8787390000     3.2860990000     1.3064860000
   42      H      -0.7913460000    -9.1436230000    -0.4577360000
   43      H       0.9797080000    -9.1494410000    -0.1580560000
   44      H      -1.0648300000    -1.4431750000    -0.1802050000
 ----------------------------------------------------------------

   11   -2755.3367616589      8.66e-07  Convergence criterion met
 Total energy in the final basis set =    -2755.3367616589
        RIMP2         total energy =     -2760.4292136696 a.u.

                    Orbital Energies (a.u.)
 --------------------------------------------------------------

 Alpha MOs
 -- Occupied --
-92.0146 -91.9971 -91.9829 -91.9592 -26.3429 -20.6150 -20.5893 -20.5875
-20.5616 -11.4096 -11.3818 -11.3111 -11.3100 -11.3097 -11.3011 -11.2982
-11.2931 -11.2889 -11.2861 -11.2858 -11.2848 -11.2838 -11.2826 -11.2742
-11.2742 -11.2606 -11.2596 -11.2509 -11.2398  -9.0133  -8.9973  -8.9851
 -8.9618  -6.6941  -6.6935  -6.6929  -6.6784  -6.6777  -6.6765  -6.6663
 -6.6654  -6.6641  -6.6430  -6.6421  -6.6410  -1.6600  -1.4675  -1.4125
 -1.4094  -1.3702  -1.2303  -1.2034  -1.1753  -1.1375  -1.1016  -1.0483
 -1.0453  -1.0235  -1.0047  -0.9994  -0.9631  -0.9595  -0.9497  -0.9409
 -0.8957  -0.8709  -0.8649  -0.8091  -0.8020  -0.7904  -0.7845  -0.7688
 -0.7570  -0.7380  -0.7249  -0.7113  -0.6995  -0.6931  -0.6848  -0.6815
 -0.6740  -0.6637  -0.6574  -0.6494  -0.6395  -0.6317  -0.6212  -0.6157
 -0.6122  -0.5984  -0.5938  -0.5773  -0.5716  -0.5655  -0.5603  -0.5543
 -0.5467  -0.5360  -0.5312  -0.5289  -0.5141  -0.5098  -0.5087  -0.5018
 -0.4853  -0.4823  -0.4772  -0.4737  -0.4704  -0.4662  -0.4615  -0.4481
 -0.4338  -0.3945  -0.3874  -0.3719  -0.3502  -0.2987  -0.2891  -0.2180

          Ground-State Mulliken Net Atomic Charges

     Atom                 Charge (a.u.)
  ----------------------------------------
      1 C                    -0.070641
      2 C                    -0.253214
      3 S                    -0.133168
      4 C                    -0.050261
      5 H                     0.194323
      6 C                    -0.049586
      7 C                     0.224249
      8 C                     0.234266
      9 C                    -0.074681
     10 C                    -0.034100
     11 O                    -0.333647
     12 O                    -0.343894
     13 C                    -0.083416
     14 H                     0.121377
     15 H                     0.092633
     16 H                     0.092897
     17 C                    -0.088827
     18 H                     0.125154
     19 H                     0.093342
     20 H                     0.090238
     21 C                    -0.322156
     22 S                    -0.097391
     23 C                     0.139299
     24 H                     0.196912
     25 C                    -0.036418
     26 S                     0.083790
     27 C                    -0.223077
     28 C                    -0.013508
     29 C                    -0.105644
     30 S                    -0.006300
     31 C                    -0.164541
     32 C                     0.410198
     33 F                    -0.207229
     34 C                     0.442977
     35 O                    -0.460793
     36 O                    -0.300589
     37 C                    -0.058574
     38 H                     0.121551
     39 H                     0.095140
     40 H                     0.095167
     41 H                     0.217038
     42 H                     0.118414
     43 H                     0.116112
     44 H                     0.206578
  ----------------------------------------
  Sum of atomic charges =     0.000000

                    Cartesian Multipole Moments
 -----------------------------------------------------------------
    Charge (ESU x 10^10)
                -0.0000
    Dipole Moment (Debye)
         X      -0.0871      Y       1.5977      Z       3.1809
       Tot       3.5606
    Quadrupole Moments (Debye-Ang)
        XX    -196.5385     XY       4.6116     YY    -171.4317
        XZ      -9.9404     YZ     -11.7151     ZZ    -192.0768

 Total job time:  352.22s(wall), 10937.67s(cpu)
        *  Thank you very much for using Q-Chem.  Have a nice day.  *
