 Q-Chem 5.4, Q-Chem, Inc., Pleasanton, CA (2021)
 Q-Chem 5.4.0 for Intel X86 EM64T Linux

User input:
--------------------------------------------------------------
$molecule
0 1
C	-0.123330	-8.517702	-0.296276
C	0.421494	-7.641575	0.631143
S	-0.911611	-7.638634	-1.628795
C	0.233291	-6.264785	0.305097
H	0.950737	-7.966081	1.535988
C	-0.478557	-6.072714	-0.931114
C	-0.781346	-4.787049	-1.405737
C	0.664542	-5.162801	1.097747
C	0.357854	-3.874817	0.624993
C	-0.352278	-3.683952	-0.613970
O	1.348709	-5.499772	2.226300
O	-1.469658	-4.459055	-2.538827
C	-1.419319	-5.329063	-3.663102
H	-1.828237	-4.755694	-4.516756
H	-2.043793	-6.238095	-3.520769
H	-0.377021	-5.637262	-3.895546
C	1.463351	-4.572261	3.298492
H	1.878237	-5.139743	4.152945
H	0.475176	-4.153131	3.585804
H	2.159469	-3.739531	3.058230
C	-0.540664	-2.306654	-0.935761
S	0.780808	-2.306501	1.330550
C	0.000000	-1.435185	0.000000
H	-1.066946	-1.978138	-1.840780
C	0.000000	0.000000	0.000000
S	0.234628	0.873813	1.507541
C	0.640889	2.392969	0.718873
C	0.234815	0.873434	-1.067872
C	0.592377	2.216811	-0.686410
S	0.174526	0.637422	-2.805516
C	0.622551	2.330840	-3.054530
C	0.803505	3.015647	-1.862551
F	1.144815	4.307994	-1.819088
C	0.740334	2.763108	-4.456084
O	0.548793	2.017428	-5.406510
O	1.082665	4.069544	-4.569225
C	1.215848	4.546407	-5.916207
H	1.494066	5.611729	-5.833064
H	0.261736	4.436296	-6.470168
H	2.000108	3.981294	-6.459293
H	0.878739	3.286099	1.306486
H	-0.900433	-9.143623	0.158021
H	0.648903	-9.149441	-0.750822
H	-0.931540	-1.443175	0.546415
$end

$rem
JOBTYPE		SP
EXCHANGE	HF
CORRELATION	pRIMP2
BASIS		cc-pvtz
METHOD		rimp2
AUX_BASIS	rimp2-cc-pvtz
SOLVENT_METHOD	PCM
PURECART	11111
SYMMETRY	false
MEM_TOTAL	110000
SCF_CONVERGENCE = 6
THRESH=10
GUI = 2
$end

$solvent
dielectric 4.90
$end
--------------------------------------------------------------

             Standard Nuclear Orientation (Angstroms)
    I     Atom           X                Y                Z
 ----------------------------------------------------------------
    1      C      -0.1233300000    -8.5177020000    -0.2962760000
    2      C       0.4214940000    -7.6415750000     0.6311430000
    3      S      -0.9116110000    -7.6386340000    -1.6287950000
    4      C       0.2332910000    -6.2647850000     0.3050970000
    5      H       0.9507370000    -7.9660810000     1.5359880000
    6      C      -0.4785570000    -6.0727140000    -0.9311140000
    7      C      -0.7813460000    -4.7870490000    -1.4057370000
    8      C       0.6645420000    -5.1628010000     1.0977470000
    9      C       0.3578540000    -3.8748170000     0.6249930000
   10      C      -0.3522780000    -3.6839520000    -0.6139700000
   11      O       1.3487090000    -5.4997720000     2.2263000000
   12      O      -1.4696580000    -4.4590550000    -2.5388270000
   13      C      -1.4193190000    -5.3290630000    -3.6631020000
   14      H      -1.8282370000    -4.7556940000    -4.5167560000
   15      H      -2.0437930000    -6.2380950000    -3.5207690000
   16      H      -0.3770210000    -5.6372620000    -3.8955460000
   17      C       1.4633510000    -4.5722610000     3.2984920000
   18      H       1.8782370000    -5.1397430000     4.1529450000
   19      H       0.4751760000    -4.1531310000     3.5858040000
   20      H       2.1594690000    -3.7395310000     3.0582300000
   21      C      -0.5406640000    -2.3066540000    -0.9357610000
   22      S       0.7808080000    -2.3065010000     1.3305500000
   23      C       0.0000000000    -1.4351850000     0.0000000000
   24      H      -1.0669460000    -1.9781380000    -1.8407800000
   25      C       0.0000000000     0.0000000000     0.0000000000
   26      S       0.2346280000     0.8738130000     1.5075410000
   27      C       0.6408890000     2.3929690000     0.7188730000
   28      C       0.2348150000     0.8734340000    -1.0678720000
   29      C       0.5923770000     2.2168110000    -0.6864100000
   30      S       0.1745260000     0.6374220000    -2.8055160000
   31      C       0.6225510000     2.3308400000    -3.0545300000
   32      C       0.8035050000     3.0156470000    -1.8625510000
   33      F       1.1448150000     4.3079940000    -1.8190880000
   34      C       0.7403340000     2.7631080000    -4.4560840000
   35      O       0.5487930000     2.0174280000    -5.4065100000
   36      O       1.0826650000     4.0695440000    -4.5692250000
   37      C       1.2158480000     4.5464070000    -5.9162070000
   38      H       1.4940660000     5.6117290000    -5.8330640000
   39      H       0.2617360000     4.4362960000    -6.4701680000
   40      H       2.0001080000     3.9812940000    -6.4592930000
   41      H       0.8787390000     3.2860990000     1.3064860000
   42      H      -0.9004330000    -9.1436230000     0.1580210000
   43      H       0.6489030000    -9.1494410000    -0.7508220000
   44      H      -0.9315400000    -1.4431750000     0.5464150000
 ----------------------------------------------------------------

   11   -2755.3385223992      8.70e-07  Convergence criterion met
 Total energy in the final basis set =    -2755.3385223992
        RIMP2         total energy =     -2760.4288416324 a.u.

                    Orbital Energies (a.u.)
 --------------------------------------------------------------

 Alpha MOs
 -- Occupied --
-92.0155 -91.9970 -91.9810 -91.9584 -26.3431 -20.6151 -20.5880 -20.5871
-20.5617 -11.4096 -11.3820 -11.3094 -11.3089 -11.3062 -11.3058 -11.2983
-11.2951 -11.2890 -11.2854 -11.2849 -11.2844 -11.2824 -11.2815 -11.2741
-11.2733 -11.2590 -11.2587 -11.2500 -11.2376  -9.0143  -8.9972  -8.9833
 -8.9610  -6.6951  -6.6945  -6.6940  -6.6782  -6.6775  -6.6764  -6.6644
 -6.6635  -6.6622  -6.6423  -6.6413  -6.6403  -1.6602  -1.4675  -1.4114
 -1.4090  -1.3702  -1.2297  -1.2031  -1.1743  -1.1377  -1.1005  -1.0471
 -1.0447  -1.0241  -1.0044  -0.9982  -0.9630  -0.9593  -0.9489  -0.9405
 -0.8947  -0.8694  -0.8660  -0.8107  -0.8013  -0.7893  -0.7845  -0.7681
 -0.7567  -0.7379  -0.7251  -0.7150  -0.6985  -0.6879  -0.6848  -0.6805
 -0.6740  -0.6619  -0.6568  -0.6489  -0.6375  -0.6313  -0.6203  -0.6151
 -0.6122  -0.5989  -0.5928  -0.5762  -0.5716  -0.5649  -0.5592  -0.5526
 -0.5486  -0.5345  -0.5312  -0.5294  -0.5142  -0.5083  -0.5082  -0.5013
 -0.4853  -0.4810  -0.4773  -0.4743  -0.4723  -0.4683  -0.4599  -0.4466
 -0.4312  -0.3953  -0.3865  -0.3707  -0.3512  -0.2992  -0.2888  -0.2180

          Ground-State Mulliken Net Atomic Charges

     Atom                 Charge (a.u.)
  ----------------------------------------
      1 C                    -0.070248
      2 C                    -0.258901
      3 S                    -0.134642
      4 C                    -0.045245
      5 H                     0.193539
      6 C                    -0.052009
      7 C                     0.224630
      8 C                     0.224262
      9 C                    -0.075194
     10 C                    -0.049532
     11 O                    -0.334090
     12 O                    -0.343750
     13 C                    -0.082792
     14 H                     0.120932
     15 H                     0.091997
     16 H                     0.093114
     17 C                    -0.088071
     18 H                     0.124075
     19 H                     0.092509
     20 H                     0.090112
     21 C                    -0.276771
     22 S                    -0.083884
     23 C                     0.102949
     24 H                     0.206107
     25 C                    -0.096633
     26 S                     0.069524
     27 C                    -0.188899
     28 C                     0.046227
     29 C                    -0.123304
     30 S                    -0.002449
     31 C                    -0.157978
     32 C                     0.402040
     33 F                    -0.207150
     34 C                     0.444826
     35 O                    -0.460303
     36 O                    -0.300634
     37 C                    -0.058519
     38 H                     0.121461
     39 H                     0.095084
     40 H                     0.095219
     41 H                     0.218435
     42 H                     0.117514
     43 H                     0.115335
     44 H                     0.201106
  ----------------------------------------
  Sum of atomic charges =     0.000000

                    Cartesian Multipole Moments
 -----------------------------------------------------------------
    Charge (ESU x 10^10)
                 0.0000
    Dipole Moment (Debye)
         X       0.2032      Y       2.3204      Z       3.4901
       Tot       4.1960
    Quadrupole Moments (Debye-Ang)
        XX    -200.1718     XY       1.9728     YY    -174.4677
        XZ       1.6427     YZ     -10.8282     ZZ    -188.3944

 Total job time:  371.41s(wall), 11167.69s(cpu)
        *  Thank you very much for using Q-Chem.  Have a nice day.  *
