 Q-Chem 5.4, Q-Chem, Inc., Pleasanton, CA (2021)
 Q-Chem 5.4.0 for Intel X86 EM64T Linux

User input:
--------------------------------------------------------------
$molecule
0 1
C	-0.014560	-8.517702	-0.320589
C	0.180211	-7.641575	0.737240
S	-0.299553	-7.638634	-1.842356
C	0.114873	-6.264785	0.366488
H	0.368061	-7.966081	1.768528
C	-0.131236	-6.072714	-1.038637
C	-0.253435	-4.787049	-1.588197
C	0.249014	-5.162801	1.258831
C	0.122513	-3.874817	0.709695
C	-0.121043	-3.683952	-0.697430
O	0.505933	-5.499772	2.553323
O	-0.512697	-4.459055	-2.888369
C	-0.080869	-5.329063	-3.927625
H	-0.173159	-4.755694	-4.869656
H	-0.716363	-6.238095	-4.007459
H	0.978072	-5.637262	-3.789565
C	0.246949	-4.572261	3.600064
H	0.344574	-5.139743	4.544887
H	-0.779898	-4.153131	3.532074
H	0.983261	-3.739531	3.612378
C	-0.188009	-2.306654	-1.064246
S	0.278644	-2.306501	1.517360
C	0.000000	-1.435185	0.000000
H	-0.373017	-1.978138	-2.094685
C	0.000000	0.000000	0.000000
S	0.234628	0.873813	1.507541
C	0.640889	2.392969	0.718873
C	0.234815	0.873434	-1.067872
C	0.592377	2.216811	-0.686410
S	0.174526	0.637422	-2.805516
C	0.622551	2.330840	-3.054530
C	0.803505	3.015647	-1.862551
F	1.144815	4.307994	-1.819088
C	0.740334	2.763108	-4.456084
O	0.548793	2.017428	-5.406510
O	1.082665	4.069544	-4.569225
C	1.215848	4.546407	-5.916207
H	1.494066	5.611729	-5.833064
H	0.261736	4.436296	-6.470168
H	2.000108	3.981294	-6.459293
H	0.878739	3.286099	1.306486
H	-0.900177	-9.143623	-0.159475
H	0.866566	-9.149441	-0.483604
H	-1.062246	-1.443175	0.194856
$end

$rem
JOBTYPE		SP
EXCHANGE	HF
CORRELATION	pRIMP2
BASIS		cc-pvtz
METHOD		rimp2
AUX_BASIS	rimp2-cc-pvtz
SOLVENT_METHOD	PCM
PURECART	11111
SYMMETRY	false
MEM_TOTAL	110000
SCF_CONVERGENCE = 6
THRESH=10
GUI = 2
$end

$solvent
dielectric 4.90
$end
--------------------------------------------------------------

             Standard Nuclear Orientation (Angstroms)
    I     Atom           X                Y                Z
 ----------------------------------------------------------------
    1      C      -0.0145600000    -8.5177020000    -0.3205890000
    2      C       0.1802110000    -7.6415750000     0.7372400000
    3      S      -0.2995530000    -7.6386340000    -1.8423560000
    4      C       0.1148730000    -6.2647850000     0.3664880000
    5      H       0.3680610000    -7.9660810000     1.7685280000
    6      C      -0.1312360000    -6.0727140000    -1.0386370000
    7      C      -0.2534350000    -4.7870490000    -1.5881970000
    8      C       0.2490140000    -5.1628010000     1.2588310000
    9      C       0.1225130000    -3.8748170000     0.7096950000
   10      C      -0.1210430000    -3.6839520000    -0.6974300000
   11      O       0.5059330000    -5.4997720000     2.5533230000
   12      O      -0.5126970000    -4.4590550000    -2.8883690000
   13      C      -0.0808690000    -5.3290630000    -3.9276250000
   14      H      -0.1731590000    -4.7556940000    -4.8696560000
   15      H      -0.7163630000    -6.2380950000    -4.0074590000
   16      H       0.9780720000    -5.6372620000    -3.7895650000
   17      C       0.2469490000    -4.5722610000     3.6000640000
   18      H       0.3445740000    -5.1397430000     4.5448870000
   19      H      -0.7798980000    -4.1531310000     3.5320740000
   20      H       0.9832610000    -3.7395310000     3.6123780000
   21      C      -0.1880090000    -2.3066540000    -1.0642460000
   22      S       0.2786440000    -2.3065010000     1.5173600000
   23      C       0.0000000000    -1.4351850000     0.0000000000
   24      H      -0.3730170000    -1.9781380000    -2.0946850000
   25      C       0.0000000000     0.0000000000     0.0000000000
   26      S       0.2346280000     0.8738130000     1.5075410000
   27      C       0.6408890000     2.3929690000     0.7188730000
   28      C       0.2348150000     0.8734340000    -1.0678720000
   29      C       0.5923770000     2.2168110000    -0.6864100000
   30      S       0.1745260000     0.6374220000    -2.8055160000
   31      C       0.6225510000     2.3308400000    -3.0545300000
   32      C       0.8035050000     3.0156470000    -1.8625510000
   33      F       1.1448150000     4.3079940000    -1.8190880000
   34      C       0.7403340000     2.7631080000    -4.4560840000
   35      O       0.5487930000     2.0174280000    -5.4065100000
   36      O       1.0826650000     4.0695440000    -4.5692250000
   37      C       1.2158480000     4.5464070000    -5.9162070000
   38      H       1.4940660000     5.6117290000    -5.8330640000
   39      H       0.2617360000     4.4362960000    -6.4701680000
   40      H       2.0001080000     3.9812940000    -6.4592930000
   41      H       0.8787390000     3.2860990000     1.3064860000
   42      H      -0.9001770000    -9.1436230000    -0.1594750000
   43      H       0.8665660000    -9.1494410000    -0.4836040000
   44      H      -1.0622460000    -1.4431750000     0.1948560000
 ----------------------------------------------------------------

   11   -2755.3366212427      8.90e-07  Convergence criterion met
 Total energy in the final basis set =    -2755.3366212427
        RIMP2         total energy =     -2760.4284854008 a.u.

                    Orbital Energies (a.u.)
 --------------------------------------------------------------

 Alpha MOs
 -- Occupied --
-92.0150 -91.9966 -91.9828 -91.9590 -26.3428 -20.6150 -20.5891 -20.5874
-20.5616 -11.4095 -11.3816 -11.3108 -11.3099 -11.3090 -11.3022 -11.2982
-11.2929 -11.2889 -11.2860 -11.2855 -11.2846 -11.2833 -11.2825 -11.2746
-11.2740 -11.2603 -11.2595 -11.2507 -11.2393  -9.0137  -8.9968  -8.9850
 -8.9616  -6.6946  -6.6940  -6.6934  -6.6779  -6.6771  -6.6760  -6.6661
 -6.6652  -6.6639  -6.6428  -6.6419  -6.6409  -1.6599  -1.4674  -1.4123
 -1.4093  -1.3701  -1.2301  -1.2034  -1.1751  -1.1376  -1.1013  -1.0481
 -1.0449  -1.0237  -1.0047  -0.9992  -0.9632  -0.9594  -0.9495  -0.9407
 -0.8956  -0.8703  -0.8654  -0.8096  -0.8020  -0.7901  -0.7844  -0.7687
 -0.7566  -0.7382  -0.7248  -0.7131  -0.6992  -0.6905  -0.6847  -0.6811
 -0.6740  -0.6630  -0.6574  -0.6493  -0.6393  -0.6318  -0.6210  -0.6155
 -0.6121  -0.5985  -0.5935  -0.5769  -0.5715  -0.5652  -0.5601  -0.5537
 -0.5478  -0.5356  -0.5313  -0.5298  -0.5145  -0.5095  -0.5086  -0.5013
 -0.4853  -0.4819  -0.4774  -0.4738  -0.4712  -0.4671  -0.4603  -0.4476
 -0.4338  -0.3944  -0.3875  -0.3717  -0.3505  -0.2987  -0.2890  -0.2177

          Ground-State Mulliken Net Atomic Charges

     Atom                 Charge (a.u.)
  ----------------------------------------
      1 C                    -0.070523
      2 C                    -0.254380
      3 S                    -0.133526
      4 C                    -0.048206
      5 H                     0.194180
      6 C                    -0.050920
      7 C                     0.227387
      8 C                     0.229762
      9 C                    -0.073262
     10 C                    -0.045530
     11 O                    -0.333581
     12 O                    -0.344437
     13 C                    -0.083416
     14 H                     0.121464
     15 H                     0.092630
     16 H                     0.093011
     17 C                    -0.088939
     18 H                     0.124900
     19 H                     0.093172
     20 H                     0.090195
     21 C                    -0.284538
     22 S                    -0.094719
     23 C                     0.115624
     24 H                     0.198735
     25 C                    -0.057149
     26 S                     0.071138
     27 C                    -0.210400
     28 C                     0.021545
     29 C                    -0.120438
     30 S                    -0.010619
     31 C                    -0.164510
     32 C                     0.409265
     33 F                    -0.207248
     34 C                     0.444579
     35 O                    -0.460695
     36 O                    -0.300675
     37 C                    -0.058598
     38 H                     0.121513
     39 H                     0.095100
     40 H                     0.095186
     41 H                     0.218227
     42 H                     0.118217
     43 H                     0.115971
     44 H                     0.204511
  ----------------------------------------
  Sum of atomic charges =     0.000000

                    Cartesian Multipole Moments
 -----------------------------------------------------------------
    Charge (ESU x 10^10)
                 0.0000
    Dipole Moment (Debye)
         X       0.0050      Y       1.7189      Z       3.4137
       Tot       3.8220
    Quadrupole Moments (Debye-Ang)
        XX    -200.4593     XY       3.1527     YY    -171.9733
        XZ      -4.7686     YZ     -11.6444     ZZ    -188.1603

 Total job time:  354.55s(wall), 10801.77s(cpu)
        *  Thank you very much for using Q-Chem.  Have a nice day.  *
