 Q-Chem 5.4, Q-Chem, Inc., Pleasanton, CA (2021)
 Q-Chem 5.4.0 for Intel X86 EM64T Linux

User input:
--------------------------------------------------------------
$molecule
0 1
C	0.270358	-8.517702	-0.172904
C	-0.548363	-7.641575	0.524688
S	1.445750	-7.638634	-1.180599
C	-0.259951	-6.264785	0.282727
H	-1.347559	-7.966081	1.203014
C	0.833868	-6.072714	-0.632972
C	1.248701	-4.787049	-1.013580
C	-0.965673	-5.162801	0.845068
C	-0.553357	-3.874817	0.460946
C	0.543470	-3.683952	-0.453541
O	-1.958276	-5.499772	1.714812
O	2.245053	-4.459055	-1.888193
C	3.360989	-5.329063	-2.033848
H	4.130667	-4.755694	-2.584788
H	3.112380	-6.238095	-2.624118
H	3.770895	-5.637262	-1.047748
C	-2.994272	-4.572261	2.013896
H	-3.763700	-5.139743	2.570853
H	-3.448815	-4.153131	1.090625
H	-2.636780	-3.739531	2.657717
C	0.827659	-2.306654	-0.694943
S	-1.174750	-2.306501	0.999993
C	-0.000000	-1.435185	-0.000000
H	1.627541	-1.978138	-1.370385
C	0.000000	0.000000	0.000000
S	0.581934	0.692785	1.507541
C	1.592155	1.897915	0.718873
C	0.581944	0.692363	-1.067872
C	1.473741	1.758764	-0.686410
S	0.427560	0.503942	-2.805516
C	1.549278	1.849357	-3.054530
C	2.002690	2.393529	-1.862551
F	2.858191	3.420549	-1.819088
C	1.838710	2.191348	-4.456084
O	1.349977	1.596481	-5.406510
O	2.701091	3.230705	-4.569225
C	3.023327	3.606605	-5.916207
H	3.725703	4.454534	-5.833064
H	2.112072	3.910035	-6.470168
H	3.495281	2.762996	-6.459293
H	2.185174	2.606846	1.306486
H	-0.311979	-9.143623	-0.859314
H	0.852097	-9.149441	0.508666
H	-0.699874	-1.443175	-0.822504
$end

$rem
JOBTYPE		SP
EXCHANGE	HF
CORRELATION	pRIMP2
BASIS		cc-pvtz
METHOD		rimp2
AUX_BASIS	rimp2-cc-pvtz
SOLVENT_METHOD	PCM
PURECART	11111
SYMMETRY	false
MEM_TOTAL	110000
SCF_CONVERGENCE = 6
THRESH=10
GUI = 2
$end

$solvent
dielectric 4.90
$end
--------------------------------------------------------------

             Standard Nuclear Orientation (Angstroms)
    I     Atom           X                Y                Z
 ----------------------------------------------------------------
    1      C       0.2703580000    -8.5177020000    -0.1729040000
    2      C      -0.5483630000    -7.6415750000     0.5246880000
    3      S       1.4457500000    -7.6386340000    -1.1805990000
    4      C      -0.2599510000    -6.2647850000     0.2827270000
    5      H      -1.3475590000    -7.9660810000     1.2030140000
    6      C       0.8338680000    -6.0727140000    -0.6329720000
    7      C       1.2487010000    -4.7870490000    -1.0135800000
    8      C      -0.9656730000    -5.1628010000     0.8450680000
    9      C      -0.5533570000    -3.8748170000     0.4609460000
   10      C       0.5434700000    -3.6839520000    -0.4535410000
   11      O      -1.9582760000    -5.4997720000     1.7148120000
   12      O       2.2450530000    -4.4590550000    -1.8881930000
   13      C       3.3609890000    -5.3290630000    -2.0338480000
   14      H       4.1306670000    -4.7556940000    -2.5847880000
   15      H       3.1123800000    -6.2380950000    -2.6241180000
   16      H       3.7708950000    -5.6372620000    -1.0477480000
   17      C      -2.9942720000    -4.5722610000     2.0138960000
   18      H      -3.7637000000    -5.1397430000     2.5708530000
   19      H      -3.4488150000    -4.1531310000     1.0906250000
   20      H      -2.6367800000    -3.7395310000     2.6577170000
   21      C       0.8276590000    -2.3066540000    -0.6949430000
   22      S      -1.1747500000    -2.3065010000     0.9999930000
   23      C       0.0000000000    -1.4351850000     0.0000000000
   24      H       1.6275410000    -1.9781380000    -1.3703850000
   25      C       0.0000000000     0.0000000000     0.0000000000
   26      S       0.5819340000     0.6927850000     1.5075410000
   27      C       1.5921550000     1.8979150000     0.7188730000
   28      C       0.5819440000     0.6923630000    -1.0678720000
   29      C       1.4737410000     1.7587640000    -0.6864100000
   30      S       0.4275600000     0.5039420000    -2.8055160000
   31      C       1.5492780000     1.8493570000    -3.0545300000
   32      C       2.0026900000     2.3935290000    -1.8625510000
   33      F       2.8581910000     3.4205490000    -1.8190880000
   34      C       1.8387100000     2.1913480000    -4.4560840000
   35      O       1.3499770000     1.5964810000    -5.4065100000
   36      O       2.7010910000     3.2307050000    -4.5692250000
   37      C       3.0233270000     3.6066050000    -5.9162070000
   38      H       3.7257030000     4.4545340000    -5.8330640000
   39      H       2.1120720000     3.9100350000    -6.4701680000
   40      H       3.4952810000     2.7629960000    -6.4592930000
   41      H       2.1851740000     2.6068460000     1.3064860000
   42      H      -0.3119790000    -9.1436230000    -0.8593140000
   43      H       0.8520970000    -9.1494410000     0.5086660000
   44      H      -0.6998740000    -1.4431750000    -0.8225040000
 ----------------------------------------------------------------

   11   -2755.3173366423      7.08e-07  Convergence criterion met
 Total energy in the final basis set =    -2755.3173366423
        RIMP2         total energy =     -2760.4135913559 a.u.

                    Orbital Energies (a.u.)
 --------------------------------------------------------------

 Alpha MOs
 -- Occupied --
-92.0099 -92.0048 -91.9761 -91.9569 -26.3458 -20.6160 -20.5865 -20.5858
-20.5625 -11.4109 -11.3859 -11.3201 -11.3105 -11.3084 -11.3053 -11.2996
-11.2898 -11.2897 -11.2877 -11.2838 -11.2823 -11.2820 -11.2774 -11.2717
-11.2710 -11.2570 -11.2554 -11.2484 -11.2340  -9.0093  -9.0047  -8.9783
 -8.9595  -6.6900  -6.6892  -6.6889  -6.6857  -6.6850  -6.6839  -6.6594
 -6.6586  -6.6573  -6.6408  -6.6398  -6.6388  -1.6628  -1.4685  -1.4094
 -1.4081  -1.3712  -1.2341  -1.2016  -1.1723  -1.1389  -1.0998  -1.0483
 -1.0448  -1.0252  -1.0021  -0.9962  -0.9637  -0.9590  -0.9482  -0.9417
 -0.8925  -0.8718  -0.8626  -0.8124  -0.7990  -0.7907  -0.7829  -0.7664
 -0.7592  -0.7354  -0.7275  -0.7113  -0.7001  -0.6941  -0.6859  -0.6800
 -0.6750  -0.6648  -0.6552  -0.6479  -0.6366  -0.6301  -0.6188  -0.6144
 -0.6116  -0.6008  -0.5927  -0.5772  -0.5721  -0.5660  -0.5571  -0.5560
 -0.5426  -0.5321  -0.5274  -0.5257  -0.5123  -0.5096  -0.5067  -0.5008
 -0.4853  -0.4819  -0.4766  -0.4747  -0.4690  -0.4662  -0.4588  -0.4452
 -0.4244  -0.3978  -0.3828  -0.3686  -0.3522  -0.3049  -0.2880  -0.2174

          Ground-State Mulliken Net Atomic Charges

     Atom                 Charge (a.u.)
  ----------------------------------------
      1 C                    -0.069741
      2 C                    -0.268288
      3 S                    -0.138241
      4 C                    -0.043895
      5 H                     0.192339
      6 C                    -0.053798
      7 C                     0.223905
      8 C                     0.227079
      9 C                    -0.071772
     10 C                    -0.044001
     11 O                    -0.335336
     12 O                    -0.343249
     13 C                    -0.082826
     14 H                     0.119859
     15 H                     0.092362
     16 H                     0.092455
     17 C                    -0.087079
     18 H                     0.123574
     19 H                     0.092066
     20 H                     0.089813
     21 C                    -0.293777
     22 S                    -0.090253
     23 C                     0.085269
     24 H                     0.211389
     25 C                    -0.094669
     26 S                     0.097358
     27 C                    -0.164562
     28 C                    -0.035044
     29 C                    -0.088323
     30 S                     0.034246
     31 C                    -0.154280
     32 C                     0.399543
     33 F                    -0.205037
     34 C                     0.446642
     35 O                    -0.461097
     36 O                    -0.301068
     37 C                    -0.058280
     38 H                     0.121651
     39 H                     0.095407
     40 H                     0.095310
     41 H                     0.217568
     42 H                     0.116272
     43 H                     0.113793
     44 H                     0.196713
  ----------------------------------------
  Sum of atomic charges =     0.000000

                    Cartesian Multipole Moments
 -----------------------------------------------------------------
    Charge (ESU x 10^10)
                 0.0000
    Dipole Moment (Debye)
         X       1.7755      Y       3.2344      Z       2.2373
       Tot       4.3150
    Quadrupole Moments (Debye-Ang)
        XX    -178.8449     XY      11.1789     YY    -185.0964
        XZ     -11.0122     YZ      -8.1662     ZZ    -203.2635

 Total job time:  324.13s(wall), 10603.13s(cpu)
        *  Thank you very much for using Q-Chem.  Have a nice day.  *
