 Q-Chem 5.4, Q-Chem, Inc., Pleasanton, CA (2021)
 Q-Chem 5.4.0 for Intel X86 EM64T Linux

User input:
--------------------------------------------------------------
$molecule
0 1
C	0.306235	-8.517702	0.095966
C	-0.754415	-7.641575	-0.082807
S	1.833702	-7.638634	0.348635
C	-0.383675	-6.264785	-0.017401
H	-1.787757	-7.966081	-0.259008
C	1.020885	-6.072714	0.231913
C	1.579097	-4.787049	0.305044
C	-1.268082	-5.162801	-0.196549
C	-0.708796	-3.874817	-0.127606
C	0.696769	-3.683952	0.124792
O	-2.572378	-5.499772	-0.397867
O	2.889532	-4.459055	0.506103
C	3.718420	-5.329063	1.267335
H	4.635204	-4.755694	1.502804
H	4.010790	-6.238095	0.697471
H	3.226506	-5.637262	2.215194
C	-3.467415	-4.572261	-0.999238
H	-4.388648	-5.139743	-1.230649
H	-3.052323	-4.153131	-1.940905
H	-3.730819	-3.739531	-0.311543
C	1.064366	-2.306654	0.187323
S	-1.521154	-2.306501	-0.257128
C	0.000000	-1.435185	0.000000
H	2.095939	-1.978138	0.365903
C	0.000000	0.000000	0.000000
S	0.693394	0.581209	1.507541
C	1.897536	1.592607	0.718873
C	0.693330	0.580791	-1.067872
C	1.756758	1.476132	-0.686410
S	0.508573	0.422041	-2.805516
C	1.846879	1.552232	-3.054530
C	2.387897	2.009402	-1.862551
F	3.408741	2.872264	-1.819088
C	2.191300	1.838768	-4.456084
O	1.606694	1.337806	-5.406510
O	3.221062	2.712584	-4.569225
C	3.603677	3.026817	-5.916207
H	4.442623	3.739898	-5.833064
H	2.758956	3.483875	-6.470168
H	3.921969	2.114070	-6.459293
H	2.604650	2.187790	1.306486
H	0.457736	-9.143623	-0.791346
H	0.158056	-9.149441	0.979708
H	0.180205	-1.443175	-1.064830
$end

$rem
JOBTYPE		SP
EXCHANGE	HF
CORRELATION	pRIMP2
BASIS		cc-pvtz
METHOD		rimp2
AUX_BASIS	rimp2-cc-pvtz
SOLVENT_METHOD	PCM
PURECART	11111
SYMMETRY	false
MEM_TOTAL	110000
SCF_CONVERGENCE = 6
THRESH=10
GUI = 2
$end

$solvent
dielectric 4.90
$end
--------------------------------------------------------------

             Standard Nuclear Orientation (Angstroms)
    I     Atom           X                Y                Z
 ----------------------------------------------------------------
    1      C       0.3062350000    -8.5177020000     0.0959660000
    2      C      -0.7544150000    -7.6415750000    -0.0828070000
    3      S       1.8337020000    -7.6386340000     0.3486350000
    4      C      -0.3836750000    -6.2647850000    -0.0174010000
    5      H      -1.7877570000    -7.9660810000    -0.2590080000
    6      C       1.0208850000    -6.0727140000     0.2319130000
    7      C       1.5790970000    -4.7870490000     0.3050440000
    8      C      -1.2680820000    -5.1628010000    -0.1965490000
    9      C      -0.7087960000    -3.8748170000    -0.1276060000
   10      C       0.6967690000    -3.6839520000     0.1247920000
   11      O      -2.5723780000    -5.4997720000    -0.3978670000
   12      O       2.8895320000    -4.4590550000     0.5061030000
   13      C       3.7184200000    -5.3290630000     1.2673350000
   14      H       4.6352040000    -4.7556940000     1.5028040000
   15      H       4.0107900000    -6.2380950000     0.6974710000
   16      H       3.2265060000    -5.6372620000     2.2151940000
   17      C      -3.4674150000    -4.5722610000    -0.9992380000
   18      H      -4.3886480000    -5.1397430000    -1.2306490000
   19      H      -3.0523230000    -4.1531310000    -1.9409050000
   20      H      -3.7308190000    -3.7395310000    -0.3115430000
   21      C       1.0643660000    -2.3066540000     0.1873230000
   22      S      -1.5211540000    -2.3065010000    -0.2571280000
   23      C       0.0000000000    -1.4351850000     0.0000000000
   24      H       2.0959390000    -1.9781380000     0.3659030000
   25      C       0.0000000000     0.0000000000     0.0000000000
   26      S       0.6933940000     0.5812090000     1.5075410000
   27      C       1.8975360000     1.5926070000     0.7188730000
   28      C       0.6933300000     0.5807910000    -1.0678720000
   29      C       1.7567580000     1.4761320000    -0.6864100000
   30      S       0.5085730000     0.4220410000    -2.8055160000
   31      C       1.8468790000     1.5522320000    -3.0545300000
   32      C       2.3878970000     2.0094020000    -1.8625510000
   33      F       3.4087410000     2.8722640000    -1.8190880000
   34      C       2.1913000000     1.8387680000    -4.4560840000
   35      O       1.6066940000     1.3378060000    -5.4065100000
   36      O       3.2210620000     2.7125840000    -4.5692250000
   37      C       3.6036770000     3.0268170000    -5.9162070000
   38      H       4.4426230000     3.7398980000    -5.8330640000
   39      H       2.7589560000     3.4838750000    -6.4701680000
   40      H       3.9219690000     2.1140700000    -6.4592930000
   41      H       2.6046500000     2.1877900000     1.3064860000
   42      H       0.4577360000    -9.1436230000    -0.7913460000
   43      H       0.1580560000    -9.1494410000     0.9797080000
   44      H       0.1802050000    -1.4431750000    -1.0648300000
 ----------------------------------------------------------------

   11   -2755.2997603580      6.98e-07  Convergence criterion met
 Total energy in the final basis set =    -2755.2997603580
        RIMP2         total energy =     -2760.3984686527 a.u.

                    Orbital Energies (a.u.)
 --------------------------------------------------------------

 Alpha MOs
 -- Occupied --
-92.0118 -92.0098 -91.9677 -91.9568 -26.3474 -20.6164 -20.5865 -20.5839
-20.5629 -11.4116 -11.3885 -11.3291 -11.3165 -11.3077 -11.3023 -11.3003
-11.2899 -11.2886 -11.2825 -11.2820 -11.2800 -11.2791 -11.2729 -11.2711
-11.2698 -11.2561 -11.2551 -11.2481 -11.2331  -9.0112  -9.0096  -8.9702
 -8.9594  -6.6919  -6.6910  -6.6908  -6.6906  -6.6898  -6.6888  -6.6513
 -6.6505  -6.6492  -6.6407  -6.6397  -6.6387  -1.6643  -1.4689  -1.4087
 -1.4069  -1.3717  -1.2391  -1.1995  -1.1718  -1.1407  -1.0996  -1.0504
 -1.0431  -1.0270  -1.0005  -0.9943  -0.9655  -0.9576  -0.9482  -0.9416
 -0.8905  -0.8734  -0.8600  -0.8180  -0.7967  -0.7892  -0.7820  -0.7665
 -0.7601  -0.7338  -0.7289  -0.7137  -0.7017  -0.6929  -0.6865  -0.6789
 -0.6755  -0.6673  -0.6540  -0.6471  -0.6363  -0.6286  -0.6185  -0.6146
 -0.6099  -0.6017  -0.5931  -0.5752  -0.5717  -0.5637  -0.5554  -0.5547
 -0.5502  -0.5324  -0.5261  -0.5199  -0.5129  -0.5103  -0.5057  -0.4992
 -0.4860  -0.4835  -0.4764  -0.4744  -0.4685  -0.4666  -0.4564  -0.4436
 -0.4195  -0.3975  -0.3816  -0.3685  -0.3498  -0.3120  -0.2862  -0.2175

          Ground-State Mulliken Net Atomic Charges

     Atom                 Charge (a.u.)
  ----------------------------------------
      1 C                    -0.069561
      2 C                    -0.270132
      3 S                    -0.138596
      4 C                    -0.040361
      5 H                     0.192227
      6 C                    -0.052509
      7 C                     0.222850
      8 C                     0.217390
      9 C                    -0.072028
     10 C                    -0.054778
     11 O                    -0.336507
     12 O                    -0.344220
     13 C                    -0.082592
     14 H                     0.119157
     15 H                     0.092202
     16 H                     0.092585
     17 C                    -0.086020
     18 H                     0.121964
     19 H                     0.091455
     20 H                     0.090139
     21 C                    -0.258640
     22 S                    -0.101098
     23 C                     0.051552
     24 H                     0.207623
     25 C                    -0.140487
     26 S                     0.096656
     27 C                    -0.140295
     28 C                     0.037758
     29 C                    -0.098369
     30 S                     0.039432
     31 C                    -0.155808
     32 C                     0.396995
     33 F                    -0.203301
     34 C                     0.448143
     35 O                    -0.461422
     36 O                    -0.301261
     37 C                    -0.058122
     38 H                     0.121677
     39 H                     0.095402
     40 H                     0.095531
     41 H                     0.219872
     42 H                     0.116138
     43 H                     0.113602
     44 H                     0.185756
  ----------------------------------------
  Sum of atomic charges =     0.000000

                    Cartesian Multipole Moments
 -----------------------------------------------------------------
    Charge (ESU x 10^10)
                 0.0000
    Dipole Moment (Debye)
         X       3.1706      Y       3.5780      Z       2.0335
       Tot       5.1952
    Quadrupole Moments (Debye-Ang)
        XX    -178.0624     XY      11.7813     YY    -189.3779
        XZ       1.9350     YZ      -4.6166     ZZ    -200.2604

 Total job time:  332.40s(wall), 10636.68s(cpu)
        *  Thank you very much for using Q-Chem.  Have a nice day.  *
