 Q-Chem 5.4, Q-Chem, Inc., Pleasanton, CA (2021)
 Q-Chem 5.4.0 for Intel X86 EM64T Linux

User input:
--------------------------------------------------------------
$molecule
0 1
C	0.296276	-8.517702	-0.123330
C	-0.631143	-7.641575	0.421494
S	1.628795	-7.638634	-0.911611
C	-0.305097	-6.264785	0.233291
H	-1.535988	-7.966081	0.950737
C	0.931114	-6.072714	-0.478557
C	1.405737	-4.787049	-0.781346
C	-1.097747	-5.162801	0.664542
C	-0.624993	-3.874817	0.357854
C	0.613970	-3.683952	-0.352278
O	-2.226300	-5.499772	1.348709
O	2.538827	-4.459055	-1.469658
C	3.663102	-5.329063	-1.419319
H	4.516756	-4.755694	-1.828237
H	3.520769	-6.238095	-2.043793
H	3.895546	-5.637262	-0.377021
C	-3.298492	-4.572261	1.463351
H	-4.152945	-5.139743	1.878237
H	-3.585804	-4.153131	0.475176
H	-3.058230	-3.739531	2.159469
C	0.935761	-2.306654	-0.540664
S	-1.330550	-2.306501	0.780808
C	-0.000000	-1.435185	-0.000000
H	1.840780	-1.978138	-1.066946
C	0.000000	0.000000	0.000000
S	0.581934	0.692785	1.507541
C	1.592155	1.897915	0.718873
C	0.581944	0.692363	-1.067872
C	1.473741	1.758764	-0.686410
S	0.427560	0.503942	-2.805516
C	1.549278	1.849357	-3.054530
C	2.002690	2.393529	-1.862551
F	2.858191	3.420549	-1.819088
C	1.838710	2.191348	-4.456084
O	1.349977	1.596481	-5.406510
O	2.701091	3.230705	-4.569225
C	3.023327	3.606605	-5.916207
H	3.725703	4.454534	-5.833064
H	2.112072	3.910035	-6.470168
H	3.495281	2.762996	-6.459293
H	2.185174	2.606846	1.306486
H	-0.158021	-9.143623	-0.900433
H	0.750822	-9.149441	0.648903
H	-0.546415	-1.443175	-0.931540
$end

$rem
JOBTYPE		SP
EXCHANGE	HF
CORRELATION	pRIMP2
BASIS		cc-pvtz
METHOD		rimp2
AUX_BASIS	rimp2-cc-pvtz
SOLVENT_METHOD	PCM
PURECART	11111
SYMMETRY	false
MEM_TOTAL	110000
SCF_CONVERGENCE = 6
THRESH=10
GUI = 2
$end

$solvent
dielectric 4.90
$end
--------------------------------------------------------------

             Standard Nuclear Orientation (Angstroms)
    I     Atom           X                Y                Z
 ----------------------------------------------------------------
    1      C       0.2962760000    -8.5177020000    -0.1233300000
    2      C      -0.6311430000    -7.6415750000     0.4214940000
    3      S       1.6287950000    -7.6386340000    -0.9116110000
    4      C      -0.3050970000    -6.2647850000     0.2332910000
    5      H      -1.5359880000    -7.9660810000     0.9507370000
    6      C       0.9311140000    -6.0727140000    -0.4785570000
    7      C       1.4057370000    -4.7870490000    -0.7813460000
    8      C      -1.0977470000    -5.1628010000     0.6645420000
    9      C      -0.6249930000    -3.8748170000     0.3578540000
   10      C       0.6139700000    -3.6839520000    -0.3522780000
   11      O      -2.2263000000    -5.4997720000     1.3487090000
   12      O       2.5388270000    -4.4590550000    -1.4696580000
   13      C       3.6631020000    -5.3290630000    -1.4193190000
   14      H       4.5167560000    -4.7556940000    -1.8282370000
   15      H       3.5207690000    -6.2380950000    -2.0437930000
   16      H       3.8955460000    -5.6372620000    -0.3770210000
   17      C      -3.2984920000    -4.5722610000     1.4633510000
   18      H      -4.1529450000    -5.1397430000     1.8782370000
   19      H      -3.5858040000    -4.1531310000     0.4751760000
   20      H      -3.0582300000    -3.7395310000     2.1594690000
   21      C       0.9357610000    -2.3066540000    -0.5406640000
   22      S      -1.3305500000    -2.3065010000     0.7808080000
   23      C       0.0000000000    -1.4351850000     0.0000000000
   24      H       1.8407800000    -1.9781380000    -1.0669460000
   25      C       0.0000000000     0.0000000000     0.0000000000
   26      S       0.5819340000     0.6927850000     1.5075410000
   27      C       1.5921550000     1.8979150000     0.7188730000
   28      C       0.5819440000     0.6923630000    -1.0678720000
   29      C       1.4737410000     1.7587640000    -0.6864100000
   30      S       0.4275600000     0.5039420000    -2.8055160000
   31      C       1.5492780000     1.8493570000    -3.0545300000
   32      C       2.0026900000     2.3935290000    -1.8625510000
   33      F       2.8581910000     3.4205490000    -1.8190880000
   34      C       1.8387100000     2.1913480000    -4.4560840000
   35      O       1.3499770000     1.5964810000    -5.4065100000
   36      O       2.7010910000     3.2307050000    -4.5692250000
   37      C       3.0233270000     3.6066050000    -5.9162070000
   38      H       3.7257030000     4.4545340000    -5.8330640000
   39      H       2.1120720000     3.9100350000    -6.4701680000
   40      H       3.4952810000     2.7629960000    -6.4592930000
   41      H       2.1851740000     2.6068460000     1.3064860000
   42      H      -0.1580210000    -9.1436230000    -0.9004330000
   43      H       0.7508220000    -9.1494410000     0.6489030000
   44      H      -0.5464150000    -1.4431750000    -0.9315400000
 ----------------------------------------------------------------

   11   -2755.3196183765      6.88e-07  Convergence criterion met
 Total energy in the final basis set =    -2755.3196183765
        RIMP2         total energy =     -2760.4147279674 a.u.

                    Orbital Energies (a.u.)
 --------------------------------------------------------------

 Alpha MOs
 -- Occupied --
-92.0096 -92.0053 -91.9744 -91.9570 -26.3460 -20.6160 -20.5866 -20.5856
-20.5625 -11.4110 -11.3862 -11.3216 -11.3119 -11.3083 -11.3049 -11.2997
-11.2897 -11.2885 -11.2877 -11.2835 -11.2824 -11.2814 -11.2771 -11.2713
-11.2712 -11.2570 -11.2555 -11.2485 -11.2342  -9.0091  -9.0052  -8.9767
 -8.9597  -6.6898  -6.6890  -6.6886  -6.6862  -6.6854  -6.6844  -6.6578
 -6.6569  -6.6557  -6.6409  -6.6400  -6.6389  -1.6630  -1.4685  -1.4092
 -1.4081  -1.3712  -1.2343  -1.2013  -1.1722  -1.1390  -1.0998  -1.0485
 -1.0445  -1.0252  -1.0018  -0.9959  -0.9637  -0.9588  -0.9482  -0.9418
 -0.8921  -0.8719  -0.8625  -0.8132  -0.7983  -0.7906  -0.7828  -0.7665
 -0.7595  -0.7350  -0.7277  -0.7115  -0.7005  -0.6941  -0.6860  -0.6797
 -0.6751  -0.6652  -0.6550  -0.6478  -0.6362  -0.6298  -0.6189  -0.6145
 -0.6113  -0.6008  -0.5927  -0.5765  -0.5723  -0.5659  -0.5567  -0.5559
 -0.5440  -0.5320  -0.5264  -0.5252  -0.5124  -0.5096  -0.5065  -0.5006
 -0.4852  -0.4821  -0.4763  -0.4747  -0.4686  -0.4667  -0.4586  -0.4450
 -0.4219  -0.3990  -0.3827  -0.3686  -0.3523  -0.3060  -0.2879  -0.2182

          Ground-State Mulliken Net Atomic Charges

     Atom                 Charge (a.u.)
  ----------------------------------------
      1 C                    -0.069856
      2 C                    -0.267245
      3 S                    -0.137893
      4 C                    -0.043507
      5 H                     0.192417
      6 C                    -0.053358
      7 C                     0.223415
      8 C                     0.225854
      9 C                    -0.074081
     10 C                    -0.043298
     11 O                    -0.335575
     12 O                    -0.343370
     13 C                    -0.082637
     14 H                     0.119728
     15 H                     0.092167
     16 H                     0.092530
     17 C                    -0.086830
     18 H                     0.123184
     19 H                     0.091947
     20 H                     0.089919
     21 C                    -0.282779
     22 S                    -0.086823
     23 C                     0.075630
     24 H                     0.209695
     25 C                    -0.091800
     26 S                     0.094029
     27 C                    -0.158897
     28 C                    -0.037278
     29 C                    -0.087540
     30 S                     0.034549
     31 C                    -0.154953
     32 C                     0.399292
     33 F                    -0.204702
     34 C                     0.447059
     35 O                    -0.461105
     36 O                    -0.301117
     37 C                    -0.058276
     38 H                     0.121636
     39 H                     0.095406
     40 H                     0.095347
     41 H                     0.218188
     42 H                     0.116405
     43 H                     0.113965
     44 H                     0.190559
  ----------------------------------------
  Sum of atomic charges =     0.000000

                    Cartesian Multipole Moments
 -----------------------------------------------------------------
    Charge (ESU x 10^10)
                 0.0000
    Dipole Moment (Debye)
         X       1.9246      Y       3.3074      Z       2.1699
       Tot       4.3990
    Quadrupole Moments (Debye-Ang)
        XX    -177.1833     XY      11.5184     YY    -184.7371
        XZ      -8.2286     YZ      -7.6436     ZZ    -204.9190

 Total job time:  336.13s(wall), 10449.48s(cpu)
        *  Thank you very much for using Q-Chem.  Have a nice day.  *
