 Q-Chem 5.4, Q-Chem, Inc., Pleasanton, CA (2021)
 Q-Chem 5.4.0 for Intel X86 EM64T Linux

User input:
--------------------------------------------------------------
$molecule
0 1
C	0.284919	-8.517702	0.147685
C	-0.728574	-7.641575	-0.212552
S	1.745304	-7.638634	0.661757
C	-0.374824	-6.264785	-0.083761
H	-1.715621	-7.966081	-0.565513
C	0.965104	-6.072714	0.405665
C	1.502136	-4.787049	0.574617
C	-1.214687	-5.162801	-0.413763
C	-0.675870	-3.874817	-0.248748
C	0.664513	-3.683952	0.243888
O	-2.464209	-5.499772	-0.838511
O	2.757750	-4.459055	1.000176
C	3.441858	-5.329063	1.893778
H	4.303826	-4.755694	2.284868
H	3.828743	-6.238095	1.383341
H	2.792824	-5.637262	2.741817
C	-3.241222	-4.572261	-1.586168
H	-4.108274	-5.139743	-1.974033
H	-2.668916	-4.153131	-2.441448
H	-3.620041	-3.739531	-0.954660
C	1.015668	-2.306654	0.369302
S	-1.453394	-2.306501	-0.517367
C	-0.000000	-1.435185	-0.000000
H	2.000559	-1.978138	0.724300
C	0.000000	0.000000	0.000000
S	0.382799	0.819795	1.507541
C	1.046687	2.245325	0.718873
C	0.382918	0.819389	-1.067872
C	0.968323	2.080267	-0.686410
S	0.282561	0.597432	-2.805516
C	1.017839	2.187324	-3.054530
C	1.314960	2.830306	-1.862551
F	1.875498	4.043751	-1.819088
C	1.208895	2.592573	-4.456084
O	0.890778	1.891482	-5.406510
O	1.772886	3.819715	-4.569225
C	1.986852	4.266207	-5.916207
H	2.445834	5.267032	-5.833064
H	1.028114	4.323448	-6.470168
H	2.661066	3.573494	-6.459293
H	1.436015	3.083584	1.306486
H	0.588198	-9.143623	-0.699838
H	-0.014470	-9.149441	0.992270
H	0.362373	-1.443175	-1.017360
$end

$rem
JOBTYPE		SP
EXCHANGE	HF
CORRELATION	pRIMP2
BASIS		cc-pvtz
METHOD		rimp2
AUX_BASIS	rimp2-cc-pvtz
SOLVENT_METHOD	PCM
PURECART	11111
SYMMETRY	false
MEM_TOTAL	110000
SCF_CONVERGENCE = 6
THRESH=10
GUI = 2
$end

$solvent
dielectric 4.90
$end
--------------------------------------------------------------

             Standard Nuclear Orientation (Angstroms)
    I     Atom           X                Y                Z
 ----------------------------------------------------------------
    1      C       0.2849190000    -8.5177020000     0.1476850000
    2      C      -0.7285740000    -7.6415750000    -0.2125520000
    3      S       1.7453040000    -7.6386340000     0.6617570000
    4      C      -0.3748240000    -6.2647850000    -0.0837610000
    5      H      -1.7156210000    -7.9660810000    -0.5655130000
    6      C       0.9651040000    -6.0727140000     0.4056650000
    7      C       1.5021360000    -4.7870490000     0.5746170000
    8      C      -1.2146870000    -5.1628010000    -0.4137630000
    9      C      -0.6758700000    -3.8748170000    -0.2487480000
   10      C       0.6645130000    -3.6839520000     0.2438880000
   11      O      -2.4642090000    -5.4997720000    -0.8385110000
   12      O       2.7577500000    -4.4590550000     1.0001760000
   13      C       3.4418580000    -5.3290630000     1.8937780000
   14      H       4.3038260000    -4.7556940000     2.2848680000
   15      H       3.8287430000    -6.2380950000     1.3833410000
   16      H       2.7928240000    -5.6372620000     2.7418170000
   17      C      -3.2412220000    -4.5722610000    -1.5861680000
   18      H      -4.1082740000    -5.1397430000    -1.9740330000
   19      H      -2.6689160000    -4.1531310000    -2.4414480000
   20      H      -3.6200410000    -3.7395310000    -0.9546600000
   21      C       1.0156680000    -2.3066540000     0.3693020000
   22      S      -1.4533940000    -2.3065010000    -0.5173670000
   23      C       0.0000000000    -1.4351850000     0.0000000000
   24      H       2.0005590000    -1.9781380000     0.7243000000
   25      C       0.0000000000     0.0000000000     0.0000000000
   26      S       0.3827990000     0.8197950000     1.5075410000
   27      C       1.0466870000     2.2453250000     0.7188730000
   28      C       0.3829180000     0.8193890000    -1.0678720000
   29      C       0.9683230000     2.0802670000    -0.6864100000
   30      S       0.2825610000     0.5974320000    -2.8055160000
   31      C       1.0178390000     2.1873240000    -3.0545300000
   32      C       1.3149600000     2.8303060000    -1.8625510000
   33      F       1.8754980000     4.0437510000    -1.8190880000
   34      C       1.2088950000     2.5925730000    -4.4560840000
   35      O       0.8907780000     1.8914820000    -5.4065100000
   36      O       1.7728860000     3.8197150000    -4.5692250000
   37      C       1.9868520000     4.2662070000    -5.9162070000
   38      H       2.4458340000     5.2670320000    -5.8330640000
   39      H       1.0281140000     4.3234480000    -6.4701680000
   40      H       2.6610660000     3.5734940000    -6.4592930000
   41      H       1.4360150000     3.0835840000     1.3064860000
   42      H       0.5881980000    -9.1436230000    -0.6998380000
   43      H      -0.0144700000    -9.1494410000     0.9922700000
   44      H       0.3623730000    -1.4431750000    -1.0173600000
 ----------------------------------------------------------------

   11   -2755.3359599348      6.94e-07  Convergence criterion met
 Total energy in the final basis set =    -2755.3359599348
        RIMP2         total energy =     -2760.4272262071 a.u.

                    Orbital Energies (a.u.)
 --------------------------------------------------------------

 Alpha MOs
 -- Occupied --
-92.0128 -92.0023 -91.9737 -91.9580 -26.3451 -20.6155 -20.5871 -20.5858
-20.5620 -11.4103 -11.3850 -11.3143 -11.3087 -11.3057 -11.3052 -11.2989
-11.2977 -11.2893 -11.2859 -11.2834 -11.2829 -11.2817 -11.2783 -11.2728
-11.2719 -11.2576 -11.2575 -11.2494 -11.2361  -9.0116  -9.0024  -8.9761
 -8.9606  -6.6924  -6.6918  -6.6913  -6.6834  -6.6827  -6.6815  -6.6572
 -6.6563  -6.6550  -6.6418  -6.6409  -6.6399  -1.6621  -1.4680  -1.4096
 -1.4085  -1.3707  -1.2315  -1.2016  -1.1730  -1.1379  -1.1003  -1.0474
 -1.0449  -1.0244  -1.0025  -0.9964  -0.9637  -0.9577  -0.9484  -0.9417
 -0.8923  -0.8713  -0.8637  -0.8156  -0.7945  -0.7899  -0.7840  -0.7677
 -0.7590  -0.7348  -0.7268  -0.7107  -0.7010  -0.6941  -0.6855  -0.6796
 -0.6746  -0.6656  -0.6550  -0.6481  -0.6348  -0.6300  -0.6197  -0.6148
 -0.6106  -0.5998  -0.5931  -0.5761  -0.5711  -0.5642  -0.5573  -0.5542
 -0.5522  -0.5318  -0.5274  -0.5241  -0.5126  -0.5095  -0.5069  -0.5008
 -0.4855  -0.4817  -0.4757  -0.4747  -0.4718  -0.4673  -0.4592  -0.4453
 -0.4240  -0.3984  -0.3841  -0.3695  -0.3503  -0.3039  -0.2885  -0.2196

          Ground-State Mulliken Net Atomic Charges

     Atom                 Charge (a.u.)
  ----------------------------------------
      1 C                    -0.070162
      2 C                    -0.262002
      3 S                    -0.135691
      4 C                    -0.044401
      5 H                     0.193201
      6 C                    -0.051930
      7 C                     0.222134
      8 C                     0.227432
      9 C                    -0.079564
     10 C                    -0.045802
     11 O                    -0.335866
     12 O                    -0.343693
     13 C                    -0.082540
     14 H                     0.119746
     15 H                     0.092056
     16 H                     0.092678
     17 C                    -0.086308
     18 H                     0.122532
     19 H                     0.092561
     20 H                     0.090017
     21 C                    -0.256866
     22 S                    -0.075077
     23 C                     0.039613
     24 H                     0.209073
     25 C                    -0.067517
     26 S                     0.088725
     27 C                    -0.176875
     28 C                    -0.000275
     29 C                    -0.094910
     30 S                     0.010910
     31 C                    -0.155969
     32 C                     0.394168
     33 F                    -0.204998
     34 C                     0.445384
     35 O                    -0.461008
     36 O                    -0.301063
     37 C                    -0.058403
     38 H                     0.121533
     39 H                     0.095294
     40 H                     0.095242
     41 H                     0.217480
     42 H                     0.117209
     43 H                     0.114637
     44 H                     0.189298
  ----------------------------------------
  Sum of atomic charges =     0.000000

                    Cartesian Multipole Moments
 -----------------------------------------------------------------
    Charge (ESU x 10^10)
                -0.0000
    Dipole Moment (Debye)
         X       1.4240      Y       3.0731      Z       2.3253
       Tot       4.1084
    Quadrupole Moments (Debye-Ang)
        XX    -188.0217     XY       9.5530     YY    -178.4282
        XZ       5.8243     YZ      -5.8749     ZZ    -198.6563

 Total job time:  324.99s(wall), 10618.60s(cpu)
        *  Thank you very much for using Q-Chem.  Have a nice day.  *
