 Q-Chem 5.4, Q-Chem, Inc., Pleasanton, CA (2021)
 Q-Chem 5.4.0 for Intel X86 EM64T Linux

User input:
--------------------------------------------------------------
$molecule
0 1
C	0.194917	-8.517702	-0.254945
C	-0.335839	-7.641575	0.680596
S	0.954772	-7.638634	-1.603876
C	-0.147576	-6.264785	0.354585
H	-0.854836	-7.966081	1.591356
C	0.567090	-6.072714	-0.879999
C	0.826731	-4.787049	-1.379534
C	-0.618405	-5.162801	1.124384
C	-0.362333	-3.874817	0.622407
C	0.355575	-3.683952	-0.612067
O	-1.253677	-5.499772	2.281166
O	1.463859	-4.459055	-2.542174
C	2.462679	-5.329063	-3.060718
H	2.997507	-4.755694	-3.841678
H	2.027179	-6.238095	-3.530361
H	3.185132	-5.637262	-2.274283
C	-2.124902	-4.572261	2.916545
H	-2.657438	-5.139743	3.703073
H	-2.867810	-4.153131	2.204417
H	-1.568770	-3.739531	3.399269
C	0.540061	-2.306654	-0.936109
S	-0.761887	-2.306501	1.341474
C	-0.000000	-1.435185	-0.000000
H	1.060690	-1.978138	-1.844392
C	0.000000	0.000000	0.000000
S	0.157577	0.890937	1.507541
C	0.429889	2.439720	0.718873
C	0.157797	0.890576	-1.067872
C	0.396915	2.260004	-0.686410
S	0.118307	0.650207	-2.805516
C	0.417036	2.376229	-3.054530
C	0.537616	3.074202	-1.862551
F	0.764992	4.391378	-1.819088
C	0.496696	2.817118	-4.456084
O	0.370874	2.057582	-5.406510
O	0.723861	4.148418	-4.569225
C	0.814976	4.635075	-5.916207
H	0.999286	5.720591	-5.833064
H	-0.125909	4.442226	-6.470168
H	1.645504	4.140465	-6.459293
H	0.588993	3.350182	1.306486
H	-0.587067	-9.143623	-0.700788
H	0.974683	-9.149441	0.186556
H	-0.938979	-1.443175	-0.533530
$end

$rem
JOBTYPE		SP
EXCHANGE	HF
CORRELATION	pRIMP2
BASIS		cc-pvtz
METHOD		rimp2
AUX_BASIS	rimp2-cc-pvtz
SOLVENT_METHOD	PCM
PURECART	11111
SYMMETRY	false
MEM_TOTAL	110000
SCF_CONVERGENCE = 6
THRESH=10
GUI = 2
$end

$solvent
dielectric 4.90
$end
--------------------------------------------------------------

             Standard Nuclear Orientation (Angstroms)
    I     Atom           X                Y                Z
 ----------------------------------------------------------------
    1      C       0.1949170000    -8.5177020000    -0.2549450000
    2      C      -0.3358390000    -7.6415750000     0.6805960000
    3      S       0.9547720000    -7.6386340000    -1.6038760000
    4      C      -0.1475760000    -6.2647850000     0.3545850000
    5      H      -0.8548360000    -7.9660810000     1.5913560000
    6      C       0.5670900000    -6.0727140000    -0.8799990000
    7      C       0.8267310000    -4.7870490000    -1.3795340000
    8      C      -0.6184050000    -5.1628010000     1.1243840000
    9      C      -0.3623330000    -3.8748170000     0.6224070000
   10      C       0.3555750000    -3.6839520000    -0.6120670000
   11      O      -1.2536770000    -5.4997720000     2.2811660000
   12      O       1.4638590000    -4.4590550000    -2.5421740000
   13      C       2.4626790000    -5.3290630000    -3.0607180000
   14      H       2.9975070000    -4.7556940000    -3.8416780000
   15      H       2.0271790000    -6.2380950000    -3.5303610000
   16      H       3.1851320000    -5.6372620000    -2.2742830000
   17      C      -2.1249020000    -4.5722610000     2.9165450000
   18      H      -2.6574380000    -5.1397430000     3.7030730000
   19      H      -2.8678100000    -4.1531310000     2.2044170000
   20      H      -1.5687700000    -3.7395310000     3.3992690000
   21      C       0.5400610000    -2.3066540000    -0.9361090000
   22      S      -0.7618870000    -2.3065010000     1.3414740000
   23      C       0.0000000000    -1.4351850000     0.0000000000
   24      H       1.0606900000    -1.9781380000    -1.8443920000
   25      C       0.0000000000     0.0000000000     0.0000000000
   26      S       0.1575770000     0.8909370000     1.5075410000
   27      C       0.4298890000     2.4397200000     0.7188730000
   28      C       0.1577970000     0.8905760000    -1.0678720000
   29      C       0.3969150000     2.2600040000    -0.6864100000
   30      S       0.1183070000     0.6502070000    -2.8055160000
   31      C       0.4170360000     2.3762290000    -3.0545300000
   32      C       0.5376160000     3.0742020000    -1.8625510000
   33      F       0.7649920000     4.3913780000    -1.8190880000
   34      C       0.4966960000     2.8171180000    -4.4560840000
   35      O       0.3708740000     2.0575820000    -5.4065100000
   36      O       0.7238610000     4.1484180000    -4.5692250000
   37      C       0.8149760000     4.6350750000    -5.9162070000
   38      H       0.9992860000     5.7205910000    -5.8330640000
   39      H      -0.1259090000     4.4422260000    -6.4701680000
   40      H       1.6455040000     4.1404650000    -6.4592930000
   41      H       0.5889930000     3.3501820000     1.3064860000
   42      H      -0.5870670000    -9.1436230000    -0.7007880000
   43      H       0.9746830000    -9.1494410000     0.1865560000
   44      H      -0.9389790000    -1.4431750000    -0.5335300000
 ----------------------------------------------------------------

   11   -2755.3423898290      8.11e-07  Convergence criterion met
 Total energy in the final basis set =    -2755.3423898290
        RIMP2         total energy =     -2760.4331334690 a.u.

                    Orbital Energies (a.u.)
 --------------------------------------------------------------

 Alpha MOs
 -- Occupied --
-92.0142 -91.9978 -91.9819 -91.9590 -26.3433 -20.6152 -20.5887 -20.5873
-20.5617 -11.4098 -11.3823 -11.3101 -11.3097 -11.3091 -11.3025 -11.2985
-11.2951 -11.2890 -11.2857 -11.2851 -11.2851 -11.2834 -11.2826 -11.2740
-11.2735 -11.2600 -11.2593 -11.2506 -11.2390  -9.0128  -8.9980  -8.9841
 -8.9615  -6.6936  -6.6930  -6.6924  -6.6790  -6.6783  -6.6772  -6.6652
 -6.6643  -6.6630  -6.6428  -6.6418  -6.6408  -1.6604  -1.4676  -1.4120
 -1.4092  -1.3703  -1.2300  -1.2033  -1.1748  -1.1372  -1.1015  -1.0477
 -1.0455  -1.0233  -1.0045  -0.9990  -0.9626  -0.9596  -0.9494  -0.9410
 -0.8952  -0.8712  -0.8647  -0.8093  -0.8010  -0.7901  -0.7847  -0.7686
 -0.7575  -0.7373  -0.7252  -0.7097  -0.6997  -0.6950  -0.6850  -0.6812
 -0.6741  -0.6644  -0.6569  -0.6492  -0.6382  -0.6312  -0.6209  -0.6154
 -0.6124  -0.5985  -0.5934  -0.5773  -0.5716  -0.5655  -0.5599  -0.5536
 -0.5468  -0.5351  -0.5313  -0.5277  -0.5134  -0.5092  -0.5085  -0.5024
 -0.4854  -0.4822  -0.4767  -0.4740  -0.4698  -0.4668  -0.4626  -0.4479
 -0.4315  -0.3956  -0.3866  -0.3713  -0.3504  -0.2991  -0.2894  -0.2190

          Ground-State Mulliken Net Atomic Charges

     Atom                 Charge (a.u.)
  ----------------------------------------
      1 C                    -0.070586
      2 C                    -0.254565
      3 S                    -0.133260
      4 C                    -0.048894
      5 H                     0.194027
      6 C                    -0.051655
      7 C                     0.220926
      8 C                     0.233762
      9 C                    -0.077734
     10 C                    -0.030510
     11 O                    -0.334165
     12 O                    -0.342812
     13 C                    -0.083076
     14 H                     0.120863
     15 H                     0.092323
     16 H                     0.092744
     17 C                    -0.087732
     18 H                     0.124462
     19 H                     0.093268
     20 H                     0.090178
     21 C                    -0.324696
     22 S                    -0.088865
     23 C                     0.127521
     24 H                     0.205354
     25 C                    -0.048954
     26 S                     0.088424
     27 C                    -0.212009
     28 C                    -0.011536
     29 C                    -0.103868
     30 S                    -0.002283
     31 C                    -0.158005
     32 C                     0.400555
     33 F                    -0.207057
     34 C                     0.443922
     35 O                    -0.460581
     36 O                    -0.300501
     37 C                    -0.058635
     38 H                     0.121545
     39 H                     0.095223
     40 H                     0.095158
     41 H                     0.216338
     42 H                     0.118183
     43 H                     0.115785
     44 H                     0.201422
  ----------------------------------------
  Sum of atomic charges =     0.000000

                    Cartesian Multipole Moments
 -----------------------------------------------------------------
    Charge (ESU x 10^10)
                 0.0000
    Dipole Moment (Debye)
         X      -0.2397      Y       1.8935      Z       2.8848
       Tot       3.4591
    Quadrupole Moments (Debye-Ang)
        XX    -190.8064     XY       4.7597     YY    -171.9103
        XZ     -10.6757     YZ     -11.2519     ZZ    -198.4099

 Total job time:  375.02s(wall), 10831.29s(cpu)
        *  Thank you very much for using Q-Chem.  Have a nice day.  *
