 Q-Chem 5.4, Q-Chem, Inc., Pleasanton, CA (2021)
 Q-Chem 5.4.0 for Intel X86 EM64T Linux

User input:
--------------------------------------------------------------
$molecule
0 1
C	0.194917	-8.517702	-0.254945
C	-0.335839	-7.641575	0.680596
S	0.954772	-7.638634	-1.603876
C	-0.147576	-6.264785	0.354585
H	-0.854836	-7.966081	1.591356
C	0.567090	-6.072714	-0.879999
C	0.826731	-4.787049	-1.379534
C	-0.618405	-5.162801	1.124384
C	-0.362333	-3.874817	0.622407
C	0.355575	-3.683952	-0.612067
O	-1.253677	-5.499772	2.281166
O	1.463859	-4.459055	-2.542174
C	2.462679	-5.329063	-3.060718
H	2.997507	-4.755694	-3.841678
H	2.027179	-6.238095	-3.530361
H	3.185132	-5.637262	-2.274283
C	-2.124902	-4.572261	2.916545
H	-2.657438	-5.139743	3.703073
H	-2.867810	-4.153131	2.204417
H	-1.568770	-3.739531	3.399269
C	0.540061	-2.306654	-0.936109
S	-0.761887	-2.306501	1.341474
C	-0.000000	-1.435185	-0.000000
H	1.060690	-1.978138	-1.844392
C	0.000000	0.000000	0.000000
S	0.309893	0.850039	1.507541
C	0.847011	2.328006	0.718873
C	0.310046	0.849645	-1.067872
C	0.783331	2.156746	-0.686410
S	0.229416	0.619785	-2.805516
C	0.823328	2.267711	-3.054530
C	1.063278	2.934142	-1.862551
F	1.515925	4.191824	-1.819088
C	0.978337	2.688069	-4.456084
O	0.722535	1.961921	-5.406510
O	1.433229	3.959697	-4.569225
C	1.607467	4.423139	-5.916207
H	1.977475	5.460158	-5.833064
H	0.647388	4.396602	-6.470168
H	2.339490	3.791823	-6.459293
H	1.161798	3.197007	1.306486
H	-0.587067	-9.143623	-0.700788
H	0.974683	-9.149441	0.186556
H	-0.938979	-1.443175	-0.533530
$end

$rem
JOBTYPE		SP
EXCHANGE	HF
CORRELATION	pRIMP2
BASIS		cc-pvtz
METHOD		rimp2
AUX_BASIS	rimp2-cc-pvtz
SOLVENT_METHOD	PCM
PURECART	11111
SYMMETRY	false
MEM_TOTAL	110000
SCF_CONVERGENCE = 6
THRESH=10
GUI = 2
$end

$solvent
dielectric 4.90
$end
--------------------------------------------------------------

             Standard Nuclear Orientation (Angstroms)
    I     Atom           X                Y                Z
 ----------------------------------------------------------------
    1      C       0.1949170000    -8.5177020000    -0.2549450000
    2      C      -0.3358390000    -7.6415750000     0.6805960000
    3      S       0.9547720000    -7.6386340000    -1.6038760000
    4      C      -0.1475760000    -6.2647850000     0.3545850000
    5      H      -0.8548360000    -7.9660810000     1.5913560000
    6      C       0.5670900000    -6.0727140000    -0.8799990000
    7      C       0.8267310000    -4.7870490000    -1.3795340000
    8      C      -0.6184050000    -5.1628010000     1.1243840000
    9      C      -0.3623330000    -3.8748170000     0.6224070000
   10      C       0.3555750000    -3.6839520000    -0.6120670000
   11      O      -1.2536770000    -5.4997720000     2.2811660000
   12      O       1.4638590000    -4.4590550000    -2.5421740000
   13      C       2.4626790000    -5.3290630000    -3.0607180000
   14      H       2.9975070000    -4.7556940000    -3.8416780000
   15      H       2.0271790000    -6.2380950000    -3.5303610000
   16      H       3.1851320000    -5.6372620000    -2.2742830000
   17      C      -2.1249020000    -4.5722610000     2.9165450000
   18      H      -2.6574380000    -5.1397430000     3.7030730000
   19      H      -2.8678100000    -4.1531310000     2.2044170000
   20      H      -1.5687700000    -3.7395310000     3.3992690000
   21      C       0.5400610000    -2.3066540000    -0.9361090000
   22      S      -0.7618870000    -2.3065010000     1.3414740000
   23      C       0.0000000000    -1.4351850000     0.0000000000
   24      H       1.0606900000    -1.9781380000    -1.8443920000
   25      C       0.0000000000     0.0000000000     0.0000000000
   26      S       0.3098930000     0.8500390000     1.5075410000
   27      C       0.8470110000     2.3280060000     0.7188730000
   28      C       0.3100460000     0.8496450000    -1.0678720000
   29      C       0.7833310000     2.1567460000    -0.6864100000
   30      S       0.2294160000     0.6197850000    -2.8055160000
   31      C       0.8233280000     2.2677110000    -3.0545300000
   32      C       1.0632780000     2.9341420000    -1.8625510000
   33      F       1.5159250000     4.1918240000    -1.8190880000
   34      C       0.9783370000     2.6880690000    -4.4560840000
   35      O       0.7225350000     1.9619210000    -5.4065100000
   36      O       1.4332290000     3.9596970000    -4.5692250000
   37      C       1.6074670000     4.4231390000    -5.9162070000
   38      H       1.9774750000     5.4601580000    -5.8330640000
   39      H       0.6473880000     4.3966020000    -6.4701680000
   40      H       2.3394900000     3.7918230000    -6.4592930000
   41      H       1.1617980000     3.1970070000     1.3064860000
   42      H      -0.5870670000    -9.1436230000    -0.7007880000
   43      H       0.9746830000    -9.1494410000     0.1865560000
   44      H      -0.9389790000    -1.4431750000    -0.5335300000
 ----------------------------------------------------------------

   11   -2755.3357619715      7.99e-07  Convergence criterion met
 Total energy in the final basis set =    -2755.3357619715
        RIMP2         total energy =     -2760.4284238910 a.u.

                    Orbital Energies (a.u.)
 --------------------------------------------------------------

 Alpha MOs
 -- Occupied --
-92.0132 -91.9990 -91.9813 -91.9585 -26.3437 -20.6153 -20.5882 -20.5871
-20.5618 -11.4099 -11.3829 -11.3095 -11.3093 -11.3056 -11.3055 -11.2986
-11.2978 -11.2891 -11.2855 -11.2854 -11.2848 -11.2825 -11.2820 -11.2734
-11.2733 -11.2591 -11.2589 -11.2501 -11.2380  -9.0120  -8.9991  -8.9834
 -8.9611  -6.6928  -6.6922  -6.6917  -6.6802  -6.6794  -6.6783  -6.6645
 -6.6637  -6.6624  -6.6423  -6.6414  -6.6404  -1.6607  -1.4677  -1.4115
 -1.4090  -1.3704  -1.2305  -1.2031  -1.1743  -1.1375  -1.1011  -1.0473
 -1.0458  -1.0236  -1.0040  -0.9985  -0.9628  -0.9595  -0.9491  -0.9412
 -0.8947  -0.8710  -0.8645  -0.8097  -0.8008  -0.7902  -0.7843  -0.7681
 -0.7578  -0.7370  -0.7256  -0.7101  -0.6995  -0.6946  -0.6851  -0.6811
 -0.6743  -0.6641  -0.6567  -0.6489  -0.6381  -0.6310  -0.6204  -0.6152
 -0.6123  -0.5989  -0.5934  -0.5776  -0.5714  -0.5656  -0.5595  -0.5548
 -0.5449  -0.5343  -0.5312  -0.5274  -0.5131  -0.5092  -0.5082  -0.5021
 -0.4852  -0.4821  -0.4769  -0.4741  -0.4698  -0.4666  -0.4617  -0.4473
 -0.4308  -0.3957  -0.3859  -0.3708  -0.3506  -0.2997  -0.2891  -0.2183

          Ground-State Mulliken Net Atomic Charges

     Atom                 Charge (a.u.)
  ----------------------------------------
      1 C                    -0.070443
      2 C                    -0.257748
      3 S                    -0.134396
      4 C                    -0.048470
      5 H                     0.193651
      6 C                    -0.051782
      7 C                     0.220730
      8 C                     0.232927
      9 C                    -0.075001
     10 C                    -0.032179
     11 O                    -0.334281
     12 O                    -0.342912
     13 C                    -0.083021
     14 H                     0.120762
     15 H                     0.092310
     16 H                     0.092712
     17 C                    -0.087710
     18 H                     0.124452
     19 H                     0.093095
     20 H                     0.089982
     21 C                    -0.324250
     22 S                    -0.089948
     23 C                     0.121050
     24 H                     0.206383
     25 C                    -0.038427
     26 S                     0.094809
     27 C                    -0.209404
     28 C                    -0.044007
     29 C                    -0.089970
     30 S                     0.006014
     31 C                    -0.158768
     32 C                     0.401833
     33 F                    -0.206686
     34 C                     0.443540
     35 O                    -0.460642
     36 O                    -0.300703
     37 C                    -0.058418
     38 H                     0.121546
     39 H                     0.095229
     40 H                     0.095163
     41 H                     0.216024
     42 H                     0.117759
     43 H                     0.115369
     44 H                     0.203826
  ----------------------------------------
  Sum of atomic charges =     0.000000

                    Cartesian Multipole Moments
 -----------------------------------------------------------------
    Charge (ESU x 10^10)
                -0.0000
    Dipole Moment (Debye)
         X       0.2454      Y       2.1556      Z       2.7970
       Tot       3.5397
    Quadrupole Moments (Debye-Ang)
        XX    -189.4455     XY       7.1110     YY    -174.7594
        XZ     -11.9442     YZ     -10.7958     ZZ    -198.2860

 Total job time:  345.37s(wall), 10506.35s(cpu)
        *  Thank you very much for using Q-Chem.  Have a nice day.  *
