 Q-Chem 5.4, Q-Chem, Inc., Pleasanton, CA (2021)
 Q-Chem 5.4.0 for Intel X86 EM64T Linux

User input:
--------------------------------------------------------------
$molecule
0 1
C	-0.236226	-8.517702	0.217225
C	0.448921	-7.641575	-0.611939
S	-1.218777	-7.638634	1.413715
C	0.206907	-6.264785	-0.323572
H	1.118185	-7.966081	-1.418739
C	-0.711285	-6.072714	0.768156
C	-1.053725	-4.787049	1.215016
C	0.804258	-5.162801	-0.999917
C	0.464908	-3.874817	-0.550033
C	-0.456457	-3.683952	0.541024
O	1.630752	-5.499772	-2.028811
O	-1.883064	-4.459055	2.249357
C	-2.956754	-5.329063	2.586579
H	-3.619069	-4.755694	3.262802
H	-2.609423	-6.238095	3.124711
H	-3.531667	-5.637262	1.686639
C	2.599073	-4.572261	-2.503251
H	3.260097	-5.139743	-3.185356
H	3.207034	-4.153131	-1.672937
H	2.135214	-3.739531	-3.075213
C	-0.694410	-2.306654	0.828107
S	0.983256	-2.306501	-1.188794
C	-0.000000	-1.435185	-0.000000
H	-1.364851	-1.978138	1.632185
C	0.000000	0.000000	0.000000
S	0.079327	0.901280	1.507541
C	0.215617	2.467903	0.718873
C	0.079577	0.900940	-1.067872
C	0.198433	2.285998	-0.686410
S	0.061187	0.658044	-2.805516
C	0.208347	2.403534	-3.054530
C	0.267636	3.109360	-1.862551
F	0.379347	4.441341	-1.819088
C	0.249278	2.849688	-4.456084
O	0.190132	2.082076	-5.406510
O	0.359548	4.195721	-4.569225
C	0.407901	4.688467	-5.916207
H	0.496901	5.785916	-5.833064
H	-0.512596	4.414348	-6.470168
H	1.278377	4.268124	-6.459293
H	0.294764	3.388767	1.306486
H	0.456457	-9.143623	0.792084
H	-0.927480	-9.149441	-0.352973
H	0.832067	-1.443175	0.688477
$end

$rem
JOBTYPE		SP
EXCHANGE	HF
CORRELATION	pRIMP2
BASIS		cc-pvtz
METHOD		rimp2
AUX_BASIS	rimp2-cc-pvtz
SOLVENT_METHOD	PCM
PURECART	11111
SYMMETRY	false
MEM_TOTAL	110000
SCF_CONVERGENCE = 6
THRESH=10
GUI = 2
$end

$solvent
dielectric 4.90
$end
--------------------------------------------------------------

             Standard Nuclear Orientation (Angstroms)
    I     Atom           X                Y                Z
 ----------------------------------------------------------------
    1      C      -0.2362260000    -8.5177020000     0.2172250000
    2      C       0.4489210000    -7.6415750000    -0.6119390000
    3      S      -1.2187770000    -7.6386340000     1.4137150000
    4      C       0.2069070000    -6.2647850000    -0.3235720000
    5      H       1.1181850000    -7.9660810000    -1.4187390000
    6      C      -0.7112850000    -6.0727140000     0.7681560000
    7      C      -1.0537250000    -4.7870490000     1.2150160000
    8      C       0.8042580000    -5.1628010000    -0.9999170000
    9      C       0.4649080000    -3.8748170000    -0.5500330000
   10      C      -0.4564570000    -3.6839520000     0.5410240000
   11      O       1.6307520000    -5.4997720000    -2.0288110000
   12      O      -1.8830640000    -4.4590550000     2.2493570000
   13      C      -2.9567540000    -5.3290630000     2.5865790000
   14      H      -3.6190690000    -4.7556940000     3.2628020000
   15      H      -2.6094230000    -6.2380950000     3.1247110000
   16      H      -3.5316670000    -5.6372620000     1.6866390000
   17      C       2.5990730000    -4.5722610000    -2.5032510000
   18      H       3.2600970000    -5.1397430000    -3.1853560000
   19      H       3.2070340000    -4.1531310000    -1.6729370000
   20      H       2.1352140000    -3.7395310000    -3.0752130000
   21      C      -0.6944100000    -2.3066540000     0.8281070000
   22      S       0.9832560000    -2.3065010000    -1.1887940000
   23      C       0.0000000000    -1.4351850000     0.0000000000
   24      H      -1.3648510000    -1.9781380000     1.6321850000
   25      C       0.0000000000     0.0000000000     0.0000000000
   26      S       0.0793270000     0.9012800000     1.5075410000
   27      C       0.2156170000     2.4679030000     0.7188730000
   28      C       0.0795770000     0.9009400000    -1.0678720000
   29      C       0.1984330000     2.2859980000    -0.6864100000
   30      S       0.0611870000     0.6580440000    -2.8055160000
   31      C       0.2083470000     2.4035340000    -3.0545300000
   32      C       0.2676360000     3.1093600000    -1.8625510000
   33      F       0.3793470000     4.4413410000    -1.8190880000
   34      C       0.2492780000     2.8496880000    -4.4560840000
   35      O       0.1901320000     2.0820760000    -5.4065100000
   36      O       0.3595480000     4.1957210000    -4.5692250000
   37      C       0.4079010000     4.6884670000    -5.9162070000
   38      H       0.4969010000     5.7859160000    -5.8330640000
   39      H      -0.5125960000     4.4143480000    -6.4701680000
   40      H       1.2783770000     4.2681240000    -6.4592930000
   41      H       0.2947640000     3.3887670000     1.3064860000
   42      H       0.4564570000    -9.1436230000     0.7920840000
   43      H      -0.9274800000    -9.1494410000    -0.3529730000
   44      H       0.8320670000    -1.4431750000     0.6884770000
 ----------------------------------------------------------------

   11   -2755.3444367788      8.33e-07  Convergence criterion met
 Total energy in the final basis set =    -2755.3444367788
        RIMP2         total energy =     -2760.4328012835 a.u.

                    Orbital Energies (a.u.)
 --------------------------------------------------------------

 Alpha MOs
 -- Occupied --
-92.0147 -91.9949 -91.9801 -91.9590 -26.3424 -20.6146 -20.5878 -20.5876
-20.5611 -11.4090 -11.3810 -11.3096 -11.3090 -11.3074 -11.3056 -11.2972
-11.2943 -11.2887 -11.2845 -11.2844 -11.2840 -11.2833 -11.2823 -11.2740
-11.2729 -11.2594 -11.2589 -11.2504 -11.2384  -9.0136  -8.9951  -8.9822
 -8.9616  -6.6944  -6.6939  -6.6932  -6.6761  -6.6754  -6.6742  -6.6633
 -6.6624  -6.6611  -6.6428  -6.6419  -6.6409  -1.6595  -1.4670  -1.4111
 -1.4096  -1.3697  -1.2293  -1.2028  -1.1746  -1.1372  -1.1006  -1.0475
 -1.0437  -1.0241  -1.0043  -0.9977  -0.9632  -0.9575  -0.9490  -0.9414
 -0.8943  -0.8683  -0.8665  -0.8147  -0.7943  -0.7898  -0.7849  -0.7691
 -0.7563  -0.7378  -0.7245  -0.7147  -0.6971  -0.6885  -0.6844  -0.6805
 -0.6736  -0.6621  -0.6564  -0.6491  -0.6376  -0.6305  -0.6207  -0.6156
 -0.6109  -0.5991  -0.5928  -0.5767  -0.5712  -0.5645  -0.5589  -0.5583
 -0.5500  -0.5329  -0.5311  -0.5256  -0.5134  -0.5102  -0.5078  -0.5018
 -0.4850  -0.4791  -0.4764  -0.4736  -0.4693  -0.4679  -0.4610  -0.4476
 -0.4295  -0.3958  -0.3864  -0.3707  -0.3514  -0.2979  -0.2894  -0.2194

          Ground-State Mulliken Net Atomic Charges

     Atom                 Charge (a.u.)
  ----------------------------------------
      1 C                    -0.070288
      2 C                    -0.255263
      3 S                    -0.134427
      4 C                    -0.048176
      5 H                     0.194157
      6 C                    -0.049964
      7 C                     0.220881
      8 C                     0.229387
      9 C                    -0.073551
     10 C                    -0.023956
     11 O                    -0.334488
     12 O                    -0.343644
     13 C                    -0.082825
     14 H                     0.120024
     15 H                     0.092157
     16 H                     0.093268
     17 C                    -0.088058
     18 H                     0.124015
     19 H                     0.092517
     20 H                     0.091852
     21 C                    -0.316856
     22 S                    -0.088263
     23 C                     0.148752
     24 H                     0.201810
     25 C                    -0.072232
     26 S                     0.083515
     27 C                    -0.197874
     28 C                    -0.023090
     29 C                    -0.110733
     30 S                     0.001835
     31 C                    -0.157945
     32 C                     0.402072
     33 F                    -0.208109
     34 C                     0.443135
     35 O                    -0.460086
     36 O                    -0.300505
     37 C                    -0.058784
     38 H                     0.121314
     39 H                     0.095228
     40 H                     0.095007
     41 H                     0.217430
     42 H                     0.117883
     43 H                     0.115781
     44 H                     0.197098
  ----------------------------------------
  Sum of atomic charges =     0.000000

                    Cartesian Multipole Moments
 -----------------------------------------------------------------
    Charge (ESU x 10^10)
                -0.0000
    Dipole Moment (Debye)
         X       0.8389      Y       2.1136      Z       3.2509
       Tot       3.9673
    Quadrupole Moments (Debye-Ang)
        XX    -188.0985     XY      -1.3351     YY    -172.4958
        XZ      -8.9437     YZ      -4.2440     ZZ    -201.5802

 Total job time:  318.70s(wall), 10368.61s(cpu)
        *  Thank you very much for using Q-Chem.  Have a nice day.  *
