 Q-Chem 5.4, Q-Chem, Inc., Pleasanton, CA (2021)
 Q-Chem 5.4.0 for Intel X86 EM64T Linux

User input:
--------------------------------------------------------------
$molecule
0 1
C	-0.217225	-8.517702	-0.236226
C	0.611939	-7.641575	0.448921
S	-1.413715	-7.638634	-1.218777
C	0.323572	-6.264785	0.206907
H	1.418739	-7.966081	1.118185
C	-0.768156	-6.072714	-0.711285
C	-1.215016	-4.787049	-1.053725
C	0.999917	-5.162801	0.804258
C	0.550033	-3.874817	0.464908
C	-0.541024	-3.683952	-0.456457
O	2.028811	-5.499772	1.630752
O	-2.249357	-4.459055	-1.883064
C	-2.586579	-5.329063	-2.956754
H	-3.262802	-4.755694	-3.619069
H	-3.124711	-6.238095	-2.609423
H	-1.686639	-5.637262	-3.531667
C	2.503251	-4.572261	2.599073
H	3.185356	-5.139743	3.260097
H	1.672937	-4.153131	3.207034
H	3.075213	-3.739531	2.135214
C	-0.828107	-2.306654	-0.694410
S	1.188794	-2.306501	0.983256
C	-0.000000	-1.435185	-0.000000
H	-1.632185	-1.978138	-1.364851
C	0.000000	0.000000	0.000000
S	0.783786	0.451972	1.507541
C	2.145261	1.238908	0.718873
C	0.783650	0.451572	-1.067872
C	1.986396	1.148648	-0.686410
S	0.574133	0.327317	-2.805516
C	2.088363	1.207943	-3.054530
C	2.700548	1.564221	-1.862551
F	3.855718	2.236706	-1.819088
C	2.477307	1.430318	-4.456084
O	1.814592	1.038482	-5.406510
O	3.643162	2.112042	-4.569225
C	4.074530	2.355061	-5.916207
H	5.024556	2.911627	-5.833064
H	3.322010	2.951860	-6.470168
H	4.229490	1.400910	-6.459293
H	2.944986	1.702260	1.306486
H	-0.792084	-9.143623	0.456457
H	0.352973	-9.149441	-0.927480
H	-0.688477	-1.443175	0.832067
$end

$rem
JOBTYPE		SP
EXCHANGE	HF
CORRELATION	pRIMP2
BASIS		cc-pvtz
METHOD		rimp2
AUX_BASIS	rimp2-cc-pvtz
SOLVENT_METHOD	PCM
PURECART	11111
SYMMETRY	false
MEM_TOTAL	110000
SCF_CONVERGENCE = 6
THRESH=10
GUI = 2
$end

$solvent
dielectric 4.90
$end
--------------------------------------------------------------

             Standard Nuclear Orientation (Angstroms)
    I     Atom           X                Y                Z
 ----------------------------------------------------------------
    1      C      -0.2172250000    -8.5177020000    -0.2362260000
    2      C       0.6119390000    -7.6415750000     0.4489210000
    3      S      -1.4137150000    -7.6386340000    -1.2187770000
    4      C       0.3235720000    -6.2647850000     0.2069070000
    5      H       1.4187390000    -7.9660810000     1.1181850000
    6      C      -0.7681560000    -6.0727140000    -0.7112850000
    7      C      -1.2150160000    -4.7870490000    -1.0537250000
    8      C       0.9999170000    -5.1628010000     0.8042580000
    9      C       0.5500330000    -3.8748170000     0.4649080000
   10      C      -0.5410240000    -3.6839520000    -0.4564570000
   11      O       2.0288110000    -5.4997720000     1.6307520000
   12      O      -2.2493570000    -4.4590550000    -1.8830640000
   13      C      -2.5865790000    -5.3290630000    -2.9567540000
   14      H      -3.2628020000    -4.7556940000    -3.6190690000
   15      H      -3.1247110000    -6.2380950000    -2.6094230000
   16      H      -1.6866390000    -5.6372620000    -3.5316670000
   17      C       2.5032510000    -4.5722610000     2.5990730000
   18      H       3.1853560000    -5.1397430000     3.2600970000
   19      H       1.6729370000    -4.1531310000     3.2070340000
   20      H       3.0752130000    -3.7395310000     2.1352140000
   21      C      -0.8281070000    -2.3066540000    -0.6944100000
   22      S       1.1887940000    -2.3065010000     0.9832560000
   23      C       0.0000000000    -1.4351850000     0.0000000000
   24      H      -1.6321850000    -1.9781380000    -1.3648510000
   25      C       0.0000000000     0.0000000000     0.0000000000
   26      S       0.7837860000     0.4519720000     1.5075410000
   27      C       2.1452610000     1.2389080000     0.7188730000
   28      C       0.7836500000     0.4515720000    -1.0678720000
   29      C       1.9863960000     1.1486480000    -0.6864100000
   30      S       0.5741330000     0.3273170000    -2.8055160000
   31      C       2.0883630000     1.2079430000    -3.0545300000
   32      C       2.7005480000     1.5642210000    -1.8625510000
   33      F       3.8557180000     2.2367060000    -1.8190880000
   34      C       2.4773070000     1.4303180000    -4.4560840000
   35      O       1.8145920000     1.0384820000    -5.4065100000
   36      O       3.6431620000     2.1120420000    -4.5692250000
   37      C       4.0745300000     2.3550610000    -5.9162070000
   38      H       5.0245560000     2.9116270000    -5.8330640000
   39      H       3.3220100000     2.9518600000    -6.4701680000
   40      H       4.2294900000     1.4009100000    -6.4592930000
   41      H       2.9449860000     1.7022600000     1.3064860000
   42      H      -0.7920840000    -9.1436230000     0.4564570000
   43      H       0.3529730000    -9.1494410000    -0.9274800000
   44      H      -0.6884770000    -1.4431750000     0.8320670000
 ----------------------------------------------------------------

   11   -2755.2699515493      7.99e-07  Convergence criterion met
 Total energy in the final basis set =    -2755.2699515493
        RIMP2         total energy =     -2760.3734903643 a.u.

                    Orbital Energies (a.u.)
 --------------------------------------------------------------

 Alpha MOs
 -- Occupied --
-92.0149 -92.0116 -91.9701 -91.9542 -26.3471 -20.6162 -20.5851 -20.5827
-20.5627 -11.4115 -11.3883 -11.3387 -11.3197 -11.3063 -11.2999 -11.2994
-11.2898 -11.2891 -11.2825 -11.2810 -11.2771 -11.2717 -11.2700 -11.2671
-11.2653 -11.2542 -11.2495 -11.2455 -11.2274  -9.0149  -9.0112  -8.9728
 -8.9569  -6.6955  -6.6946  -6.6945  -6.6921  -6.6914  -6.6904  -6.6538
 -6.6529  -6.6516  -6.6381  -6.6372  -6.6362  -1.6641  -1.4688  -1.4073
 -1.4058  -1.3716  -1.2416  -1.1994  -1.1704  -1.1420  -1.0964  -1.0497
 -1.0421  -1.0294  -1.0011  -0.9927  -0.9669  -0.9599  -0.9457  -0.9393
 -0.8909  -0.8733  -0.8588  -0.8187  -0.7991  -0.7878  -0.7808  -0.7639
 -0.7584  -0.7376  -0.7288  -0.7176  -0.6960  -0.6891  -0.6861  -0.6781
 -0.6754  -0.6622  -0.6536  -0.6462  -0.6362  -0.6308  -0.6160  -0.6127
 -0.6104  -0.6035  -0.5893  -0.5793  -0.5685  -0.5623  -0.5563  -0.5532
 -0.5343  -0.5336  -0.5304  -0.5240  -0.5148  -0.5085  -0.5055  -0.4988
 -0.4872  -0.4825  -0.4775  -0.4750  -0.4733  -0.4640  -0.4500  -0.4424
 -0.4235  -0.3911  -0.3834  -0.3649  -0.3475  -0.3129  -0.2845  -0.2128

          Ground-State Mulliken Net Atomic Charges

     Atom                 Charge (a.u.)
  ----------------------------------------
      1 C                    -0.068654
      2 C                    -0.286598
      3 S                    -0.144062
      4 C                    -0.039315
      5 H                     0.189745
      6 C                    -0.055533
      7 C                     0.224151
      8 C                     0.214196
      9 C                    -0.081170
     10 C                    -0.051375
     11 O                    -0.336848
     12 O                    -0.343721
     13 C                    -0.082565
     14 H                     0.119457
     15 H                     0.091738
     16 H                     0.092676
     17 C                    -0.086476
     18 H                     0.122341
     19 H                     0.089831
     20 H                     0.088430
     21 C                    -0.288986
     22 S                    -0.094071
     23 C                     0.039702
     24 H                     0.209027
     25 C                    -0.202121
     26 S                     0.104207
     27 C                    -0.113294
     28 C                     0.135737
     29 C                    -0.125639
     30 S                     0.058912
     31 C                    -0.153894
     32 C                     0.397410
     33 F                    -0.203808
     34 C                     0.448387
     35 O                    -0.461861
     36 O                    -0.301255
     37 C                    -0.058133
     38 H                     0.121697
     39 H                     0.095297
     40 H                     0.095603
     41 H                     0.223661
     42 H                     0.113547
     43 H                     0.111317
     44 H                     0.192310
  ----------------------------------------
  Sum of atomic charges =     0.000000

                    Cartesian Multipole Moments
 -----------------------------------------------------------------
    Charge (ESU x 10^10)
                -0.0000
    Dipole Moment (Debye)
         X       3.5275      Y       4.4297      Z       2.9353
       Tot       6.3782
    Quadrupole Moments (Debye-Ang)
        XX    -183.3821     XY       6.2093     YY    -201.6625
        XZ       1.6526     YZ      -5.5060     ZZ    -190.1844

 Total job time:  332.14s(wall), 10800.45s(cpu)
        *  Thank you very much for using Q-Chem.  Have a nice day.  *
