 Q-Chem 5.4, Q-Chem, Inc., Pleasanton, CA (2021)
 Q-Chem 5.4.0 for Intel X86 EM64T Linux

User input:
--------------------------------------------------------------
$molecule
0 1
C	0.070009	-8.517702	0.313191
C	-0.305494	-7.641575	-0.694746
S	0.614924	-7.638634	1.762350
C	-0.176768	-6.264785	-0.340973
H	-0.669571	-7.966081	-1.677747
C	0.309600	-6.072714	1.000069
C	0.525372	-4.787049	1.520060
C	-0.463825	-5.162801	-1.196466
C	-0.243888	-3.874817	-0.677639
C	0.240312	-3.683952	0.665815
O	-0.941626	-5.499772	-2.426678
O	1.006468	-4.459055	2.755460
C	0.761666	-5.329063	3.853913
H	1.016135	-4.755694	4.765607
H	1.401368	-6.238095	3.822182
H	-0.305161	-5.637262	3.901833
C	-0.868342	-4.572261	-3.502489
H	-1.128551	-5.139743	-4.416005
H	0.154712	-4.153131	-3.613841
H	-1.595605	-3.739531	-3.386756
C	0.369957	-2.306654	1.015430
S	-0.537898	-2.306501	-1.445922
C	0.000000	-1.435185	0.000000
H	0.731088	-1.978138	1.998088
C	0.000000	0.000000	0.000000
S	0.234628	0.873813	1.507541
C	0.640889	2.392969	0.718873
C	0.234815	0.873434	-1.067872
C	0.592377	2.216811	-0.686410
S	0.174526	0.637422	-2.805516
C	0.622551	2.330840	-3.054530
C	0.803505	3.015647	-1.862551
F	1.144815	4.307994	-1.819088
C	0.740334	2.763108	-4.456084
O	0.548793	2.017428	-5.406510
O	1.082665	4.069544	-4.569225
C	1.215848	4.546407	-5.916207
H	1.494066	5.611729	-5.833064
H	0.261736	4.436296	-6.470168
H	2.000108	3.981294	-6.459293
H	0.878739	3.286099	1.306486
H	0.914194	-9.143623	0.000738
H	-0.769424	-9.149441	0.626735
H	1.012272	-1.443175	-0.376353
$end

$rem
JOBTYPE		SP
EXCHANGE	HF
CORRELATION	pRIMP2
BASIS		cc-pvtz
METHOD		rimp2
AUX_BASIS	rimp2-cc-pvtz
SOLVENT_METHOD	PCM
PURECART	11111
SYMMETRY	false
MEM_TOTAL	110000
SCF_CONVERGENCE = 6
THRESH=10
GUI = 2
$end

$solvent
dielectric 4.90
$end
--------------------------------------------------------------

             Standard Nuclear Orientation (Angstroms)
    I     Atom           X                Y                Z
 ----------------------------------------------------------------
    1      C       0.0700090000    -8.5177020000     0.3131910000
    2      C      -0.3054940000    -7.6415750000    -0.6947460000
    3      S       0.6149240000    -7.6386340000     1.7623500000
    4      C      -0.1767680000    -6.2647850000    -0.3409730000
    5      H      -0.6695710000    -7.9660810000    -1.6777470000
    6      C       0.3096000000    -6.0727140000     1.0000690000
    7      C       0.5253720000    -4.7870490000     1.5200600000
    8      C      -0.4638250000    -5.1628010000    -1.1964660000
    9      C      -0.2438880000    -3.8748170000    -0.6776390000
   10      C       0.2403120000    -3.6839520000     0.6658150000
   11      O      -0.9416260000    -5.4997720000    -2.4266780000
   12      O       1.0064680000    -4.4590550000     2.7554600000
   13      C       0.7616660000    -5.3290630000     3.8539130000
   14      H       1.0161350000    -4.7556940000     4.7656070000
   15      H       1.4013680000    -6.2380950000     3.8221820000
   16      H      -0.3051610000    -5.6372620000     3.9018330000
   17      C      -0.8683420000    -4.5722610000    -3.5024890000
   18      H      -1.1285510000    -5.1397430000    -4.4160050000
   19      H       0.1547120000    -4.1531310000    -3.6138410000
   20      H      -1.5956050000    -3.7395310000    -3.3867560000
   21      C       0.3699570000    -2.3066540000     1.0154300000
   22      S      -0.5378980000    -2.3065010000    -1.4459220000
   23      C       0.0000000000    -1.4351850000     0.0000000000
   24      H       0.7310880000    -1.9781380000     1.9980880000
   25      C       0.0000000000     0.0000000000     0.0000000000
   26      S       0.2346280000     0.8738130000     1.5075410000
   27      C       0.6408890000     2.3929690000     0.7188730000
   28      C       0.2348150000     0.8734340000    -1.0678720000
   29      C       0.5923770000     2.2168110000    -0.6864100000
   30      S       0.1745260000     0.6374220000    -2.8055160000
   31      C       0.6225510000     2.3308400000    -3.0545300000
   32      C       0.8035050000     3.0156470000    -1.8625510000
   33      F       1.1448150000     4.3079940000    -1.8190880000
   34      C       0.7403340000     2.7631080000    -4.4560840000
   35      O       0.5487930000     2.0174280000    -5.4065100000
   36      O       1.0826650000     4.0695440000    -4.5692250000
   37      C       1.2158480000     4.5464070000    -5.9162070000
   38      H       1.4940660000     5.6117290000    -5.8330640000
   39      H       0.2617360000     4.4362960000    -6.4701680000
   40      H       2.0001080000     3.9812940000    -6.4592930000
   41      H       0.8787390000     3.2860990000     1.3064860000
   42      H       0.9141940000    -9.1436230000     0.0007380000
   43      H      -0.7694240000    -9.1494410000     0.6267350000
   44      H       1.0122720000    -1.4431750000    -0.3763530000
 ----------------------------------------------------------------

   11   -2755.3408039498      8.10e-07  Convergence criterion met
 Total energy in the final basis set =    -2755.3408039498
        RIMP2         total energy =     -2760.4329806922 a.u.

                    Orbital Energies (a.u.)
 --------------------------------------------------------------

 Alpha MOs
 -- Occupied --
-92.0146 -91.9958 -91.9800 -91.9598 -26.3423 -20.6148 -20.5884 -20.5882
-20.5613 -11.4092 -11.3808 -11.3107 -11.3104 -11.3101 -11.3003 -11.2973
-11.2921 -11.2888 -11.2851 -11.2847 -11.2847 -11.2844 -11.2837 -11.2752
-11.2733 -11.2612 -11.2596 -11.2513 -11.2402  -9.0132  -8.9960  -8.9825
 -8.9624  -6.6941  -6.6935  -6.6929  -6.6770  -6.6763  -6.6751  -6.6636
 -6.6627  -6.6614  -6.6436  -6.6427  -6.6417  -1.6594  -1.4672  -1.4117
 -1.4100  -1.3699  -1.2307  -1.2026  -1.1754  -1.1372  -1.1014  -1.0486
 -1.0444  -1.0237  -1.0047  -0.9983  -0.9639  -0.9570  -0.9496  -0.9420
 -0.8948  -0.8701  -0.8646  -0.8155  -0.7920  -0.7904  -0.7850  -0.7699
 -0.7571  -0.7371  -0.7244  -0.7094  -0.6970  -0.6961  -0.6846  -0.6817
 -0.6738  -0.6649  -0.6565  -0.6495  -0.6375  -0.6318  -0.6215  -0.6160
 -0.6112  -0.5996  -0.5937  -0.5762  -0.5714  -0.5661  -0.5601  -0.5562
 -0.5505  -0.5321  -0.5308  -0.5269  -0.5156  -0.5114  -0.5083  -0.5009
 -0.4852  -0.4802  -0.4767  -0.4737  -0.4712  -0.4657  -0.4607  -0.4477
 -0.4324  -0.3976  -0.3836  -0.3722  -0.3501  -0.3001  -0.2872  -0.2184

          Ground-State Mulliken Net Atomic Charges

     Atom                 Charge (a.u.)
  ----------------------------------------
      1 C                    -0.070685
      2 C                    -0.250155
      3 S                    -0.132475
      4 C                    -0.047518
      5 H                     0.194828
      6 C                    -0.050081
      7 C                     0.219960
      8 C                     0.232368
      9 C                    -0.073009
     10 C                    -0.040937
     11 O                    -0.334263
     12 O                    -0.344107
     13 C                    -0.082676
     14 H                     0.120118
     15 H                     0.092258
     16 H                     0.093074
     17 C                    -0.088558
     18 H                     0.124376
     19 H                     0.093827
     20 H                     0.091101
     21 C                    -0.298034
     22 S                    -0.095236
     23 C                     0.095909
     24 H                     0.199519
     25 C                     0.003338
     26 S                     0.076798
     27 C                    -0.213326
     28 C                    -0.027367
     29 C                    -0.112998
     30 S                    -0.005968
     31 C                    -0.162847
     32 C                     0.403560
     33 F                    -0.207565
     34 C                     0.444839
     35 O                    -0.460542
     36 O                    -0.300661
     37 C                    -0.058643
     38 H                     0.121413
     39 H                     0.095140
     40 H                     0.094991
     41 H                     0.216798
     42 H                     0.118699
     43 H                     0.116369
     44 H                     0.208366
  ----------------------------------------
  Sum of atomic charges =     0.000000

                    Cartesian Multipole Moments
 -----------------------------------------------------------------
    Charge (ESU x 10^10)
                 0.0000
    Dipole Moment (Debye)
         X       1.1180      Y       1.4053      Z       2.5672
       Tot       3.1330
    Quadrupole Moments (Debye-Ang)
        XX    -200.9194     XY       5.1528     YY    -170.8943
        XZ      -1.4961     YZ      -3.3500     ZZ    -187.7189

 Total job time:  390.28s(wall), 11258.43s(cpu)
        *  Thank you very much for using Q-Chem.  Have a nice day.  *
