 Q-Chem 5.4, Q-Chem, Inc., Pleasanton, CA (2021)
 Q-Chem 5.4.0 for Intel X86 EM64T Linux

User input:
--------------------------------------------------------------
$molecule
0 1
C	-0.270358	-8.517702	0.172904
C	0.548363	-7.641575	-0.524688
S	-1.445750	-7.638634	1.180599
C	0.259951	-6.264785	-0.282727
H	1.347559	-7.966081	-1.203014
C	-0.833868	-6.072714	0.632972
C	-1.248701	-4.787049	1.013580
C	0.965673	-5.162801	-0.845068
C	0.553357	-3.874817	-0.460946
C	-0.543470	-3.683952	0.453541
O	1.958276	-5.499772	-1.714812
O	-2.245053	-4.459055	1.888193
C	-3.360989	-5.329063	2.033848
H	-4.130667	-4.755694	2.584788
H	-3.112380	-6.238095	2.624118
H	-3.770895	-5.637262	1.047748
C	2.994272	-4.572261	-2.013896
H	3.763700	-5.139743	-2.570853
H	3.448815	-4.153131	-1.090625
H	2.636780	-3.739531	-2.657717
C	-0.827659	-2.306654	0.694943
S	1.174750	-2.306501	-0.999993
C	-0.000000	-1.435185	-0.000000
H	-1.627541	-1.978138	1.370385
C	0.000000	0.000000	0.000000
S	0.309893	0.850039	1.507541
C	0.847011	2.328006	0.718873
C	0.310046	0.849645	-1.067872
C	0.783331	2.156746	-0.686410
S	0.229416	0.619785	-2.805516
C	0.823328	2.267711	-3.054530
C	1.063278	2.934142	-1.862551
F	1.515925	4.191824	-1.819088
C	0.978337	2.688069	-4.456084
O	0.722535	1.961921	-5.406510
O	1.433229	3.959697	-4.569225
C	1.607467	4.423139	-5.916207
H	1.977475	5.460158	-5.833064
H	0.647388	4.396602	-6.470168
H	2.339490	3.791823	-6.459293
H	1.161798	3.197007	1.306486
H	0.311979	-9.143623	0.859314
H	-0.852097	-9.149441	-0.508666
H	0.699874	-1.443175	0.822504
$end

$rem
JOBTYPE		SP
EXCHANGE	HF
CORRELATION	pRIMP2
BASIS		cc-pvtz
METHOD		rimp2
AUX_BASIS	rimp2-cc-pvtz
SOLVENT_METHOD	PCM
PURECART	11111
SYMMETRY	false
MEM_TOTAL	110000
SCF_CONVERGENCE = 6
THRESH=10
GUI = 2
$end

$solvent
dielectric 4.90
$end
--------------------------------------------------------------

             Standard Nuclear Orientation (Angstroms)
    I     Atom           X                Y                Z
 ----------------------------------------------------------------
    1      C      -0.2703580000    -8.5177020000     0.1729040000
    2      C       0.5483630000    -7.6415750000    -0.5246880000
    3      S      -1.4457500000    -7.6386340000     1.1805990000
    4      C       0.2599510000    -6.2647850000    -0.2827270000
    5      H       1.3475590000    -7.9660810000    -1.2030140000
    6      C      -0.8338680000    -6.0727140000     0.6329720000
    7      C      -1.2487010000    -4.7870490000     1.0135800000
    8      C       0.9656730000    -5.1628010000    -0.8450680000
    9      C       0.5533570000    -3.8748170000    -0.4609460000
   10      C      -0.5434700000    -3.6839520000     0.4535410000
   11      O       1.9582760000    -5.4997720000    -1.7148120000
   12      O      -2.2450530000    -4.4590550000     1.8881930000
   13      C      -3.3609890000    -5.3290630000     2.0338480000
   14      H      -4.1306670000    -4.7556940000     2.5847880000
   15      H      -3.1123800000    -6.2380950000     2.6241180000
   16      H      -3.7708950000    -5.6372620000     1.0477480000
   17      C       2.9942720000    -4.5722610000    -2.0138960000
   18      H       3.7637000000    -5.1397430000    -2.5708530000
   19      H       3.4488150000    -4.1531310000    -1.0906250000
   20      H       2.6367800000    -3.7395310000    -2.6577170000
   21      C      -0.8276590000    -2.3066540000     0.6949430000
   22      S       1.1747500000    -2.3065010000    -0.9999930000
   23      C       0.0000000000    -1.4351850000     0.0000000000
   24      H      -1.6275410000    -1.9781380000     1.3703850000
   25      C       0.0000000000     0.0000000000     0.0000000000
   26      S       0.3098930000     0.8500390000     1.5075410000
   27      C       0.8470110000     2.3280060000     0.7188730000
   28      C       0.3100460000     0.8496450000    -1.0678720000
   29      C       0.7833310000     2.1567460000    -0.6864100000
   30      S       0.2294160000     0.6197850000    -2.8055160000
   31      C       0.8233280000     2.2677110000    -3.0545300000
   32      C       1.0632780000     2.9341420000    -1.8625510000
   33      F       1.5159250000     4.1918240000    -1.8190880000
   34      C       0.9783370000     2.6880690000    -4.4560840000
   35      O       0.7225350000     1.9619210000    -5.4065100000
   36      O       1.4332290000     3.9596970000    -4.5692250000
   37      C       1.6074670000     4.4231390000    -5.9162070000
   38      H       1.9774750000     5.4601580000    -5.8330640000
   39      H       0.6473880000     4.3966020000    -6.4701680000
   40      H       2.3394900000     3.7918230000    -6.4592930000
   41      H       1.1617980000     3.1970070000     1.3064860000
   42      H       0.3119790000    -9.1436230000     0.8593140000
   43      H      -0.8520970000    -9.1494410000    -0.5086660000
   44      H       0.6998740000    -1.4431750000     0.8225040000
 ----------------------------------------------------------------

   11   -2755.3373763792      8.01e-07  Convergence criterion met
 Total energy in the final basis set =    -2755.3373763792
        RIMP2         total energy =     -2760.4269854738 a.u.

                    Orbital Energies (a.u.)
 --------------------------------------------------------------

 Alpha MOs
 -- Occupied --
-92.0141 -91.9967 -91.9785 -91.9581 -26.3431 -20.6148 -20.5873 -20.5867
-20.5613 -11.4093 -11.3820 -11.3104 -11.3090 -11.3074 -11.3028 -11.2979
-11.2975 -11.2888 -11.2849 -11.2841 -11.2829 -11.2828 -11.2799 -11.2726
-11.2714 -11.2581 -11.2573 -11.2496 -11.2366  -9.0132  -8.9968  -8.9806
 -8.9607  -6.6940  -6.6933  -6.6928  -6.6778  -6.6771  -6.6760  -6.6617
 -6.6608  -6.6595  -6.6419  -6.6410  -6.6399  -1.6602  -1.4672  -1.4102
 -1.4090  -1.3699  -1.2304  -1.2021  -1.1737  -1.1379  -1.0996  -1.0468
 -1.0439  -1.0249  -1.0036  -0.9965  -0.9635  -0.9575  -0.9484  -0.9410
 -0.8934  -0.8682  -0.8657  -0.8152  -0.7946  -0.7894  -0.7842  -0.7682
 -0.7564  -0.7377  -0.7251  -0.7156  -0.6966  -0.6878  -0.6846  -0.6800
 -0.6738  -0.6618  -0.6559  -0.6485  -0.6364  -0.6299  -0.6199  -0.6151
 -0.6109  -0.5993  -0.5922  -0.5767  -0.5712  -0.5636  -0.5598  -0.5574
 -0.5476  -0.5332  -0.5311  -0.5246  -0.5127  -0.5093  -0.5074  -0.5013
 -0.4849  -0.4803  -0.4761  -0.4736  -0.4691  -0.4676  -0.4602  -0.4469
 -0.4276  -0.3961  -0.3854  -0.3697  -0.3522  -0.2986  -0.2893  -0.2189

          Ground-State Mulliken Net Atomic Charges

     Atom                 Charge (a.u.)
  ----------------------------------------
      1 C                    -0.070028
      2 C                    -0.260708
      3 S                    -0.136332
      4 C                    -0.045770
      5 H                     0.193445
      6 C                    -0.048676
      7 C                     0.217467
      8 C                     0.224513
      9 C                    -0.071545
     10 C                    -0.025146
     11 O                    -0.334749
     12 O                    -0.343638
     13 C                    -0.082836
     14 H                     0.119796
     15 H                     0.092211
     16 H                     0.093115
     17 C                    -0.088026
     18 H                     0.123660
     19 H                     0.091933
     20 H                     0.091535
     21 C                    -0.298745
     22 S                    -0.081345
     23 C                     0.093687
     24 H                     0.203514
     25 C                    -0.026074
     26 S                     0.087925
     27 C                    -0.190601
     28 C                    -0.075609
     29 C                    -0.086084
     30 S                     0.016172
     31 C                    -0.155675
     32 C                     0.398742
     33 F                    -0.207495
     34 C                     0.443977
     35 O                    -0.460205
     36 O                    -0.300782
     37 C                    -0.058474
     38 H                     0.121299
     39 H                     0.095209
     40 H                     0.095074
     41 H                     0.217737
     42 H                     0.117178
     43 H                     0.114957
     44 H                     0.195397
  ----------------------------------------
  Sum of atomic charges =     0.000000

                    Cartesian Multipole Moments
 -----------------------------------------------------------------
    Charge (ESU x 10^10)
                -0.0000
    Dipole Moment (Debye)
         X       1.4793      Y       2.6435      Z       3.2767
       Tot       4.4625
    Quadrupole Moments (Debye-Ang)
        XX    -183.8930     XY       2.0498     YY    -177.0627
        XZ      -8.7876     YZ      -4.3666     ZZ    -203.8474

 Total job time:  354.48s(wall), 11057.33s(cpu)
        *  Thank you very much for using Q-Chem.  Have a nice day.  *
