 Q-Chem 5.4, Q-Chem, Inc., Pleasanton, CA (2021)
 Q-Chem 5.4.0 for Intel X86 EM64T Linux

User input:
--------------------------------------------------------------
$molecule
0 1
C	0.284919	-8.517702	0.147685
C	-0.728574	-7.641575	-0.212552
S	1.745304	-7.638634	0.661757
C	-0.374824	-6.264785	-0.083761
H	-1.715621	-7.966081	-0.565513
C	0.965104	-6.072714	0.405665
C	1.502136	-4.787049	0.574617
C	-1.214687	-5.162801	-0.413763
C	-0.675870	-3.874817	-0.248748
C	0.664513	-3.683952	0.243888
O	-2.464209	-5.499772	-0.838511
O	2.757750	-4.459055	1.000176
C	3.441858	-5.329063	1.893778
H	4.303826	-4.755694	2.284868
H	3.828743	-6.238095	1.383341
H	2.792824	-5.637262	2.741817
C	-3.241222	-4.572261	-1.586168
H	-4.108274	-5.139743	-1.974033
H	-2.668916	-4.153131	-2.441448
H	-3.620041	-3.739531	-0.954660
C	1.015668	-2.306654	0.369302
S	-1.453394	-2.306501	-0.517367
C	0.000000	-1.435185	0.000000
H	2.000559	-1.978138	0.724300
C	0.000000	0.000000	0.000000
S	0.693394	0.581209	1.507541
C	1.897536	1.592607	0.718873
C	0.693330	0.580791	-1.067872
C	1.756758	1.476132	-0.686410
S	0.508573	0.422041	-2.805516
C	1.846879	1.552232	-3.054530
C	2.387897	2.009402	-1.862551
F	3.408741	2.872264	-1.819088
C	2.191300	1.838768	-4.456084
O	1.606694	1.337806	-5.406510
O	3.221062	2.712584	-4.569225
C	3.603677	3.026817	-5.916207
H	4.442623	3.739898	-5.833064
H	2.758956	3.483875	-6.470168
H	3.921969	2.114070	-6.459293
H	2.604650	2.187790	1.306486
H	0.588198	-9.143623	-0.699838
H	-0.014470	-9.149441	0.992270
H	0.362373	-1.443175	-1.017360
$end

$rem
JOBTYPE		SP
EXCHANGE	HF
CORRELATION	pRIMP2
BASIS		cc-pvtz
METHOD		rimp2
AUX_BASIS	rimp2-cc-pvtz
SOLVENT_METHOD	PCM
PURECART	11111
SYMMETRY	false
MEM_TOTAL	110000
SCF_CONVERGENCE = 6
THRESH=10
GUI = 2
$end

$solvent
dielectric 4.90
$end
--------------------------------------------------------------

             Standard Nuclear Orientation (Angstroms)
    I     Atom           X                Y                Z
 ----------------------------------------------------------------
    1      C       0.2849190000    -8.5177020000     0.1476850000
    2      C      -0.7285740000    -7.6415750000    -0.2125520000
    3      S       1.7453040000    -7.6386340000     0.6617570000
    4      C      -0.3748240000    -6.2647850000    -0.0837610000
    5      H      -1.7156210000    -7.9660810000    -0.5655130000
    6      C       0.9651040000    -6.0727140000     0.4056650000
    7      C       1.5021360000    -4.7870490000     0.5746170000
    8      C      -1.2146870000    -5.1628010000    -0.4137630000
    9      C      -0.6758700000    -3.8748170000    -0.2487480000
   10      C       0.6645130000    -3.6839520000     0.2438880000
   11      O      -2.4642090000    -5.4997720000    -0.8385110000
   12      O       2.7577500000    -4.4590550000     1.0001760000
   13      C       3.4418580000    -5.3290630000     1.8937780000
   14      H       4.3038260000    -4.7556940000     2.2848680000
   15      H       3.8287430000    -6.2380950000     1.3833410000
   16      H       2.7928240000    -5.6372620000     2.7418170000
   17      C      -3.2412220000    -4.5722610000    -1.5861680000
   18      H      -4.1082740000    -5.1397430000    -1.9740330000
   19      H      -2.6689160000    -4.1531310000    -2.4414480000
   20      H      -3.6200410000    -3.7395310000    -0.9546600000
   21      C       1.0156680000    -2.3066540000     0.3693020000
   22      S      -1.4533940000    -2.3065010000    -0.5173670000
   23      C       0.0000000000    -1.4351850000     0.0000000000
   24      H       2.0005590000    -1.9781380000     0.7243000000
   25      C       0.0000000000     0.0000000000     0.0000000000
   26      S       0.6933940000     0.5812090000     1.5075410000
   27      C       1.8975360000     1.5926070000     0.7188730000
   28      C       0.6933300000     0.5807910000    -1.0678720000
   29      C       1.7567580000     1.4761320000    -0.6864100000
   30      S       0.5085730000     0.4220410000    -2.8055160000
   31      C       1.8468790000     1.5522320000    -3.0545300000
   32      C       2.3878970000     2.0094020000    -1.8625510000
   33      F       3.4087410000     2.8722640000    -1.8190880000
   34      C       2.1913000000     1.8387680000    -4.4560840000
   35      O       1.6066940000     1.3378060000    -5.4065100000
   36      O       3.2210620000     2.7125840000    -4.5692250000
   37      C       3.6036770000     3.0268170000    -5.9162070000
   38      H       4.4426230000     3.7398980000    -5.8330640000
   39      H       2.7589560000     3.4838750000    -6.4701680000
   40      H       3.9219690000     2.1140700000    -6.4592930000
   41      H       2.6046500000     2.1877900000     1.3064860000
   42      H       0.5881980000    -9.1436230000    -0.6998380000
   43      H      -0.0144700000    -9.1494410000     0.9922700000
   44      H       0.3623730000    -1.4431750000    -1.0173600000
 ----------------------------------------------------------------

   11   -2755.2966123099      7.29e-07  Convergence criterion met
 Total energy in the final basis set =    -2755.2966123099
        RIMP2         total energy =     -2760.3965561000 a.u.

                    Orbital Energies (a.u.)
 --------------------------------------------------------------

 Alpha MOs
 -- Occupied --
-92.0133 -92.0101 -91.9682 -91.9565 -26.3474 -20.6164 -20.5866 -20.5837
-20.5629 -11.4116 -11.3885 -11.3282 -11.3153 -11.3078 -11.3020 -11.3002
-11.2899 -11.2886 -11.2826 -11.2819 -11.2813 -11.2793 -11.2729 -11.2708
-11.2706 -11.2559 -11.2545 -11.2477 -11.2323  -9.0125  -9.0098  -8.9707
 -8.9591  -6.6932  -6.6924  -6.6921  -6.6908  -6.6900  -6.6890  -6.6518
 -6.6510  -6.6497  -6.6404  -6.6395  -6.6384  -1.6643  -1.4689  -1.4087
 -1.4067  -1.3717  -1.2396  -1.1996  -1.1717  -1.1408  -1.0995  -1.0504
 -1.0431  -1.0273  -1.0006  -0.9943  -0.9659  -0.9572  -0.9481  -0.9416
 -0.8905  -0.8736  -0.8597  -0.8188  -0.7965  -0.7887  -0.7820  -0.7664
 -0.7599  -0.7338  -0.7289  -0.7136  -0.7019  -0.6928  -0.6864  -0.6790
 -0.6755  -0.6677  -0.6539  -0.6470  -0.6361  -0.6288  -0.6182  -0.6147
 -0.6098  -0.6019  -0.5931  -0.5758  -0.5711  -0.5629  -0.5555  -0.5547
 -0.5512  -0.5324  -0.5262  -0.5200  -0.5130  -0.5103  -0.5058  -0.4989
 -0.4859  -0.4840  -0.4764  -0.4744  -0.4696  -0.4661  -0.4563  -0.4434
 -0.4221  -0.3966  -0.3810  -0.3686  -0.3489  -0.3116  -0.2861  -0.2165

          Ground-State Mulliken Net Atomic Charges

     Atom                 Charge (a.u.)
  ----------------------------------------
      1 C                    -0.069355
      2 C                    -0.272817
      3 S                    -0.139452
      4 C                    -0.039906
      5 H                     0.191866
      6 C                    -0.053385
      7 C                     0.223893
      8 C                     0.216682
      9 C                    -0.069044
     10 C                    -0.058247
     11 O                    -0.336552
     12 O                    -0.344379
     13 C                    -0.082607
     14 H                     0.119103
     15 H                     0.092166
     16 H                     0.092704
     17 C                    -0.086278
     18 H                     0.121913
     19 H                     0.091536
     20 H                     0.090047
     21 C                    -0.260723
     22 S                    -0.099360
     23 C                     0.051422
     24 H                     0.207033
     25 C                    -0.135449
     26 S                     0.097528
     27 C                    -0.143948
     28 C                     0.040942
     29 C                    -0.099426
     30 S                     0.038855
     31 C                    -0.153892
     32 C                     0.395370
     33 F                    -0.203278
     34 C                     0.448054
     35 O                    -0.461417
     36 O                    -0.301255
     37 C                    -0.058123
     38 H                     0.121683
     39 H                     0.095401
     40 H                     0.095514
     41 H                     0.219883
     42 H                     0.115756
     43 H                     0.113189
     44 H                     0.188353
  ----------------------------------------
  Sum of atomic charges =     0.000000

                    Cartesian Multipole Moments
 -----------------------------------------------------------------
    Charge (ESU x 10^10)
                 0.0000
    Dipole Moment (Debye)
         X       3.2378      Y       3.6949      Z       2.0938
       Tot       5.3404
    Quadrupole Moments (Debye-Ang)
        XX    -181.0325     XY      11.5797     YY    -190.8434
        XZ       3.0236     YZ      -4.1430     ZZ    -197.2567

 Total job time:  330.05s(wall), 10646.32s(cpu)
        *  Thank you very much for using Q-Chem.  Have a nice day.  *
