 Q-Chem 5.4, Q-Chem, Inc., Pleasanton, CA (2021)
 Q-Chem 5.4.0 for Intel X86 EM64T Linux

User input:
--------------------------------------------------------------
$molecule
0 1
C	0.147685	-8.517702	-0.284919
C	-0.212552	-7.641575	0.728574
S	0.661757	-7.638634	-1.745304
C	-0.083761	-6.264785	0.374824
H	-0.565513	-7.966081	1.715621
C	0.405665	-6.072714	-0.965104
C	0.574617	-4.787049	-1.502136
C	-0.413763	-5.162801	1.214687
C	-0.248748	-3.874817	0.675870
C	0.243888	-3.683952	-0.664513
O	-0.838511	-5.499772	2.464209
O	1.000176	-4.459055	-2.757750
C	1.893778	-5.329063	-3.441858
H	2.284868	-4.755694	-4.303826
H	1.383341	-6.238095	-3.828743
H	2.741817	-5.637262	-2.792824
C	-1.586168	-4.572261	3.241222
H	-1.974033	-5.139743	4.108274
H	-2.441448	-4.153131	2.668916
H	-0.954660	-3.739531	3.620041
C	0.369302	-2.306654	-1.015668
S	-0.517367	-2.306501	1.453394
C	-0.000000	-1.435185	-0.000000
H	0.724300	-1.978138	-2.000559
C	0.000000	0.000000	0.000000
S	0.783786	0.451972	1.507541
C	2.145261	1.238908	0.718873
C	0.783650	0.451572	-1.067872
C	1.986396	1.148648	-0.686410
S	0.574133	0.327317	-2.805516
C	2.088363	1.207943	-3.054530
C	2.700548	1.564221	-1.862551
F	3.855718	2.236706	-1.819088
C	2.477307	1.430318	-4.456084
O	1.814592	1.038482	-5.406510
O	3.643162	2.112042	-4.569225
C	4.074530	2.355061	-5.916207
H	5.024556	2.911627	-5.833064
H	3.322010	2.951860	-6.470168
H	4.229490	1.400910	-6.459293
H	2.944986	1.702260	1.306486
H	-0.699838	-9.143623	-0.588198
H	0.992270	-9.149441	0.014470
H	-1.017360	-1.443175	-0.362373
$end

$rem
JOBTYPE		SP
EXCHANGE	HF
CORRELATION	pRIMP2
BASIS		cc-pvtz
METHOD		rimp2
AUX_BASIS	rimp2-cc-pvtz
SOLVENT_METHOD	PCM
PURECART	11111
SYMMETRY	false
MEM_TOTAL	110000
SCF_CONVERGENCE = 6
THRESH=10
GUI = 2
$end

$solvent
dielectric 4.90
$end
--------------------------------------------------------------

             Standard Nuclear Orientation (Angstroms)
    I     Atom           X                Y                Z
 ----------------------------------------------------------------
    1      C       0.1476850000    -8.5177020000    -0.2849190000
    2      C      -0.2125520000    -7.6415750000     0.7285740000
    3      S       0.6617570000    -7.6386340000    -1.7453040000
    4      C      -0.0837610000    -6.2647850000     0.3748240000
    5      H      -0.5655130000    -7.9660810000     1.7156210000
    6      C       0.4056650000    -6.0727140000    -0.9651040000
    7      C       0.5746170000    -4.7870490000    -1.5021360000
    8      C      -0.4137630000    -5.1628010000     1.2146870000
    9      C      -0.2487480000    -3.8748170000     0.6758700000
   10      C       0.2438880000    -3.6839520000    -0.6645130000
   11      O      -0.8385110000    -5.4997720000     2.4642090000
   12      O       1.0001760000    -4.4590550000    -2.7577500000
   13      C       1.8937780000    -5.3290630000    -3.4418580000
   14      H       2.2848680000    -4.7556940000    -4.3038260000
   15      H       1.3833410000    -6.2380950000    -3.8287430000
   16      H       2.7418170000    -5.6372620000    -2.7928240000
   17      C      -1.5861680000    -4.5722610000     3.2412220000
   18      H      -1.9740330000    -5.1397430000     4.1082740000
   19      H      -2.4414480000    -4.1531310000     2.6689160000
   20      H      -0.9546600000    -3.7395310000     3.6200410000
   21      C       0.3693020000    -2.3066540000    -1.0156680000
   22      S      -0.5173670000    -2.3065010000     1.4533940000
   23      C       0.0000000000    -1.4351850000     0.0000000000
   24      H       0.7243000000    -1.9781380000    -2.0005590000
   25      C       0.0000000000     0.0000000000     0.0000000000
   26      S       0.7837860000     0.4519720000     1.5075410000
   27      C       2.1452610000     1.2389080000     0.7188730000
   28      C       0.7836500000     0.4515720000    -1.0678720000
   29      C       1.9863960000     1.1486480000    -0.6864100000
   30      S       0.5741330000     0.3273170000    -2.8055160000
   31      C       2.0883630000     1.2079430000    -3.0545300000
   32      C       2.7005480000     1.5642210000    -1.8625510000
   33      F       3.8557180000     2.2367060000    -1.8190880000
   34      C       2.4773070000     1.4303180000    -4.4560840000
   35      O       1.8145920000     1.0384820000    -5.4065100000
   36      O       3.6431620000     2.1120420000    -4.5692250000
   37      C       4.0745300000     2.3550610000    -5.9162070000
   38      H       5.0245560000     2.9116270000    -5.8330640000
   39      H       3.3220100000     2.9518600000    -6.4701680000
   40      H       4.2294900000     1.4009100000    -6.4592930000
   41      H       2.9449860000     1.7022600000     1.3064860000
   42      H      -0.6998380000    -9.1436230000    -0.5881980000
   43      H       0.9922700000    -9.1494410000     0.0144700000
   44      H      -1.0173600000    -1.4431750000    -0.3623730000
 ----------------------------------------------------------------

   11   -2755.2599379098      7.84e-07  Convergence criterion met
 Total energy in the final basis set =    -2755.2599379098
        RIMP2         total energy =     -2760.3693206705 a.u.

                    Orbital Energies (a.u.)
 --------------------------------------------------------------

 Alpha MOs
 -- Occupied --
-92.0109 -92.0099 -91.9764 -91.9543 -26.3474 -20.6166 -20.5858 -20.5843
-20.5631 -11.4119 -11.3884 -11.3324 -11.3196 -11.3075 -11.3024 -11.3003
-11.2901 -11.2896 -11.2833 -11.2815 -11.2815 -11.2726 -11.2717 -11.2705
-11.2668 -11.2551 -11.2496 -11.2459 -11.2282  -9.0109  -9.0100  -8.9786
 -8.9570  -6.6918  -6.6910  -6.6906  -6.6901  -6.6895  -6.6894  -6.6597
 -6.6589  -6.6577  -6.6382  -6.6373  -6.6363  -1.6644  -1.4692  -1.4081
 -1.4070  -1.3720  -1.2419  -1.2001  -1.1705  -1.1416  -1.0985  -1.0509
 -1.0435  -1.0283  -1.0010  -0.9948  -0.9658  -0.9603  -0.9469  -0.9410
 -0.8921  -0.8735  -0.8592  -0.8145  -0.8004  -0.7915  -0.7806  -0.7640
 -0.7593  -0.7364  -0.7290  -0.7142  -0.6988  -0.6927  -0.6866  -0.6814
 -0.6757  -0.6638  -0.6551  -0.6471  -0.6398  -0.6308  -0.6165  -0.6143
 -0.6112  -0.6030  -0.5914  -0.5799  -0.5719  -0.5666  -0.5570  -0.5551
 -0.5360  -0.5329  -0.5298  -0.5225  -0.5113  -0.5108  -0.5061  -0.4994
 -0.4884  -0.4805  -0.4779  -0.4746  -0.4683  -0.4613  -0.4536  -0.4433
 -0.4281  -0.3929  -0.3803  -0.3664  -0.3496  -0.3086  -0.2854  -0.2108

          Ground-State Mulliken Net Atomic Charges

     Atom                 Charge (a.u.)
  ----------------------------------------
      1 C                    -0.068394
      2 C                    -0.286050
      3 S                    -0.145303
      4 C                    -0.040568
      5 H                     0.189962
      6 C                    -0.056989
      7 C                     0.232488
      8 C                     0.224471
      9 C                    -0.072255
     10 C                    -0.063712
     11 O                    -0.335761
     12 O                    -0.344789
     13 C                    -0.083261
     14 H                     0.120051
     15 H                     0.092728
     16 H                     0.092281
     17 C                    -0.087387
     18 H                     0.123523
     19 H                     0.091735
     20 H                     0.088549
     21 C                    -0.261052
     22 S                    -0.108483
     23 C                     0.063479
     24 H                     0.207621
     25 C                    -0.183084
     26 S                     0.109223
     27 C                    -0.131155
     28 C                     0.044099
     29 C                    -0.104538
     30 S                     0.057778
     31 C                    -0.158035
     32 C                     0.400182
     33 F                    -0.203778
     34 C                     0.449363
     35 O                    -0.462301
     36 O                    -0.301126
     37 C                    -0.058088
     38 H                     0.121835
     39 H                     0.095466
     40 H                     0.095347
     41 H                     0.219763
     42 H                     0.113817
     43 H                     0.111390
     44 H                     0.210962
  ----------------------------------------
  Sum of atomic charges =     0.000000

                    Cartesian Multipole Moments
 -----------------------------------------------------------------
    Charge (ESU x 10^10)
                -0.0000
    Dipole Moment (Debye)
         X       3.0498      Y       3.8546      Z       2.2778
       Tot       5.4174
    Quadrupole Moments (Debye-Ang)
        XX    -180.9991     XY       9.1750     YY    -200.4654
        XZ     -15.2359     YZ      -7.0272     ZZ    -193.2721

 Total job time:  333.88s(wall), 10823.88s(cpu)
        *  Thank you very much for using Q-Chem.  Have a nice day.  *
