 Q-Chem 5.4, Q-Chem, Inc., Pleasanton, CA (2021)
 Q-Chem 5.4.0 for Intel X86 EM64T Linux

User input:
--------------------------------------------------------------
$molecule
0 1
C	0.313191	-8.517702	-0.070009
C	-0.694746	-7.641575	0.305494
S	1.762350	-7.638634	-0.614924
C	-0.340973	-6.264785	0.176768
H	-1.677747	-7.966081	0.669571
C	1.000069	-6.072714	-0.309600
C	1.520060	-4.787049	-0.525372
C	-1.196466	-5.162801	0.463825
C	-0.677639	-3.874817	0.243888
C	0.665815	-3.683952	-0.240312
O	-2.426678	-5.499772	0.941626
O	2.755460	-4.459055	-1.006468
C	3.853913	-5.329063	-0.761666
H	4.765607	-4.755694	-1.016135
H	3.822182	-6.238095	-1.401368
H	3.901833	-5.637262	0.305161
C	-3.502489	-4.572261	0.868342
H	-4.416005	-5.139743	1.128551
H	-3.613841	-4.153131	-0.154712
H	-3.386756	-3.739531	1.595605
C	1.015430	-2.306654	-0.369957
S	-1.445922	-2.306501	0.537898
C	-0.000000	-1.435185	-0.000000
H	1.998088	-1.978138	-0.731088
C	0.000000	0.000000	0.000000
S	0.581934	0.692785	1.507541
C	1.592155	1.897915	0.718873
C	0.581944	0.692363	-1.067872
C	1.473741	1.758764	-0.686410
S	0.427560	0.503942	-2.805516
C	1.549278	1.849357	-3.054530
C	2.002690	2.393529	-1.862551
F	2.858191	3.420549	-1.819088
C	1.838710	2.191348	-4.456084
O	1.349977	1.596481	-5.406510
O	2.701091	3.230705	-4.569225
C	3.023327	3.606605	-5.916207
H	3.725703	4.454534	-5.833064
H	2.112072	3.910035	-6.470168
H	3.495281	2.762996	-6.459293
H	2.185174	2.606846	1.306486
H	0.000738	-9.143623	-0.914194
H	0.626735	-9.149441	0.769424
H	-0.376353	-1.443175	-1.012272
$end

$rem
JOBTYPE		SP
EXCHANGE	HF
CORRELATION	pRIMP2
BASIS		cc-pvtz
METHOD		rimp2
AUX_BASIS	rimp2-cc-pvtz
SOLVENT_METHOD	PCM
PURECART	11111
SYMMETRY	false
MEM_TOTAL	110000
SCF_CONVERGENCE = 6
THRESH=10
GUI = 2
$end

$solvent
dielectric 4.90
$end
--------------------------------------------------------------

             Standard Nuclear Orientation (Angstroms)
    I     Atom           X                Y                Z
 ----------------------------------------------------------------
    1      C       0.3131910000    -8.5177020000    -0.0700090000
    2      C      -0.6947460000    -7.6415750000     0.3054940000
    3      S       1.7623500000    -7.6386340000    -0.6149240000
    4      C      -0.3409730000    -6.2647850000     0.1767680000
    5      H      -1.6777470000    -7.9660810000     0.6695710000
    6      C       1.0000690000    -6.0727140000    -0.3096000000
    7      C       1.5200600000    -4.7870490000    -0.5253720000
    8      C      -1.1964660000    -5.1628010000     0.4638250000
    9      C      -0.6776390000    -3.8748170000     0.2438880000
   10      C       0.6658150000    -3.6839520000    -0.2403120000
   11      O      -2.4266780000    -5.4997720000     0.9416260000
   12      O       2.7554600000    -4.4590550000    -1.0064680000
   13      C       3.8539130000    -5.3290630000    -0.7616660000
   14      H       4.7656070000    -4.7556940000    -1.0161350000
   15      H       3.8221820000    -6.2380950000    -1.4013680000
   16      H       3.9018330000    -5.6372620000     0.3051610000
   17      C      -3.5024890000    -4.5722610000     0.8683420000
   18      H      -4.4160050000    -5.1397430000     1.1285510000
   19      H      -3.6138410000    -4.1531310000    -0.1547120000
   20      H      -3.3867560000    -3.7395310000     1.5956050000
   21      C       1.0154300000    -2.3066540000    -0.3699570000
   22      S      -1.4459220000    -2.3065010000     0.5378980000
   23      C       0.0000000000    -1.4351850000     0.0000000000
   24      H       1.9980880000    -1.9781380000    -0.7310880000
   25      C       0.0000000000     0.0000000000     0.0000000000
   26      S       0.5819340000     0.6927850000     1.5075410000
   27      C       1.5921550000     1.8979150000     0.7188730000
   28      C       0.5819440000     0.6923630000    -1.0678720000
   29      C       1.4737410000     1.7587640000    -0.6864100000
   30      S       0.4275600000     0.5039420000    -2.8055160000
   31      C       1.5492780000     1.8493570000    -3.0545300000
   32      C       2.0026900000     2.3935290000    -1.8625510000
   33      F       2.8581910000     3.4205490000    -1.8190880000
   34      C       1.8387100000     2.1913480000    -4.4560840000
   35      O       1.3499770000     1.5964810000    -5.4065100000
   36      O       2.7010910000     3.2307050000    -4.5692250000
   37      C       3.0233270000     3.6066050000    -5.9162070000
   38      H       3.7257030000     4.4545340000    -5.8330640000
   39      H       2.1120720000     3.9100350000    -6.4701680000
   40      H       3.4952810000     2.7629960000    -6.4592930000
   41      H       2.1851740000     2.6068460000     1.3064860000
   42      H       0.0007380000    -9.1436230000    -0.9141940000
   43      H       0.6267350000    -9.1494410000     0.7694240000
   44      H      -0.3763530000    -1.4431750000    -1.0122720000
 ----------------------------------------------------------------

   11   -2755.3207197639      6.73e-07  Convergence criterion met
 Total energy in the final basis set =    -2755.3207197639
        RIMP2         total energy =     -2760.4151126563 a.u.

                    Orbital Energies (a.u.)
 --------------------------------------------------------------

 Alpha MOs
 -- Occupied --
-92.0096 -92.0056 -91.9728 -91.9572 -26.3461 -20.6160 -20.5866 -20.5854
-20.5625 -11.4110 -11.3865 -11.3227 -11.3128 -11.3082 -11.3046 -11.2997
-11.2897 -11.2876 -11.2875 -11.2833 -11.2824 -11.2808 -11.2767 -11.2716
-11.2706 -11.2570 -11.2558 -11.2486 -11.2346  -9.0090  -9.0055  -8.9751
 -8.9598  -6.6898  -6.6890  -6.6886  -6.6865  -6.6858  -6.6847  -6.6562
 -6.6554  -6.6541  -6.6411  -6.6401  -6.6391  -1.6631  -1.4685  -1.4091
 -1.4080  -1.3712  -1.2344  -1.2010  -1.1723  -1.1390  -1.0998  -1.0487
 -1.0443  -1.0253  -1.0016  -0.9957  -0.9638  -0.9585  -0.9483  -0.9418
 -0.8918  -0.8720  -0.8624  -0.8140  -0.7975  -0.7905  -0.7828  -0.7667
 -0.7596  -0.7347  -0.7278  -0.7118  -0.7008  -0.6940  -0.6860  -0.6794
 -0.6751  -0.6655  -0.6548  -0.6477  -0.6360  -0.6295  -0.6190  -0.6145
 -0.6110  -0.6007  -0.5928  -0.5758  -0.5725  -0.5657  -0.5564  -0.5556
 -0.5457  -0.5320  -0.5261  -0.5242  -0.5124  -0.5097  -0.5063  -0.5005
 -0.4851  -0.4823  -0.4761  -0.4747  -0.4683  -0.4673  -0.4584  -0.4449
 -0.4197  -0.4001  -0.3827  -0.3687  -0.3521  -0.3070  -0.2877  -0.2188

          Ground-State Mulliken Net Atomic Charges

     Atom                 Charge (a.u.)
  ----------------------------------------
      1 C                    -0.069927
      2 C                    -0.266167
      3 S                    -0.137359
      4 C                    -0.043197
      5 H                     0.192584
      6 C                    -0.052763
      7 C                     0.223353
      8 C                     0.225255
      9 C                    -0.076430
     10 C                    -0.043374
     11 O                    -0.335807
     12 O                    -0.343484
     13 C                    -0.082668
     14 H                     0.119610
     15 H                     0.092227
     16 H                     0.092518
     17 C                    -0.086462
     18 H                     0.122822
     19 H                     0.091805
     20 H                     0.090074
     21 C                    -0.270598
     22 S                    -0.086593
     23 C                     0.064988
     24 H                     0.207945
     25 C                    -0.090403
     26 S                     0.091543
     27 C                    -0.156017
     28 C                    -0.032835
     29 C                    -0.085552
     30 S                     0.031407
     31 C                    -0.155472
     32 C                     0.398610
     33 F                    -0.204437
     34 C                     0.447198
     35 O                    -0.461165
     36 O                    -0.301161
     37 C                    -0.058276
     38 H                     0.121619
     39 H                     0.095399
     40 H                     0.095370
     41 H                     0.218641
     42 H                     0.116545
     43 H                     0.114097
     44 H                     0.186537
  ----------------------------------------
  Sum of atomic charges =     0.000000

                    Cartesian Multipole Moments
 -----------------------------------------------------------------
    Charge (ESU x 10^10)
                 0.0000
    Dipole Moment (Debye)
         X       2.0651      Y       3.3342      Z       2.1342
       Tot       4.4650
    Quadrupole Moments (Debye-Ang)
        XX    -176.6015     XY      11.7225     YY    -184.2075
        XZ      -5.0598     YZ      -7.0801     ZZ    -205.5168

 Total job time:  356.94s(wall), 10755.51s(cpu)
        *  Thank you very much for using Q-Chem.  Have a nice day.  *
