 Q-Chem 5.4, Q-Chem, Inc., Pleasanton, CA (2021)
 Q-Chem 5.4.0 for Intel X86 EM64T Linux

User input:
--------------------------------------------------------------
$molecule
0 1
C	-0.014560	-8.517702	-0.320589
C	0.180211	-7.641575	0.737240
S	-0.299553	-7.638634	-1.842356
C	0.114873	-6.264785	0.366488
H	0.368061	-7.966081	1.768528
C	-0.131236	-6.072714	-1.038637
C	-0.253435	-4.787049	-1.588197
C	0.249014	-5.162801	1.258831
C	0.122513	-3.874817	0.709695
C	-0.121043	-3.683952	-0.697430
O	0.505933	-5.499772	2.553323
O	-0.512697	-4.459055	-2.888369
C	-0.080869	-5.329063	-3.927625
H	-0.173159	-4.755694	-4.869656
H	-0.716363	-6.238095	-4.007459
H	0.978072	-5.637262	-3.789565
C	0.246949	-4.572261	3.600064
H	0.344574	-5.139743	4.544887
H	-0.779898	-4.153131	3.532074
H	0.983261	-3.739531	3.612378
C	-0.188009	-2.306654	-1.064246
S	0.278644	-2.306501	1.517360
C	-0.000000	-1.435185	-0.000000
H	-0.373017	-1.978138	-2.094685
C	0.000000	0.000000	0.000000
S	0.783786	0.451972	1.507541
C	2.145261	1.238908	0.718873
C	0.783650	0.451572	-1.067872
C	1.986396	1.148648	-0.686410
S	0.574133	0.327317	-2.805516
C	2.088363	1.207943	-3.054530
C	2.700548	1.564221	-1.862551
F	3.855718	2.236706	-1.819088
C	2.477307	1.430318	-4.456084
O	1.814592	1.038482	-5.406510
O	3.643162	2.112042	-4.569225
C	4.074530	2.355061	-5.916207
H	5.024556	2.911627	-5.833064
H	3.322010	2.951860	-6.470168
H	4.229490	1.400910	-6.459293
H	2.944986	1.702260	1.306486
H	-0.900177	-9.143623	-0.159475
H	0.866566	-9.149441	-0.483604
H	-1.062246	-1.443175	0.194856
$end

$rem
JOBTYPE		SP
EXCHANGE	HF
CORRELATION	pRIMP2
BASIS		cc-pvtz
METHOD		rimp2
AUX_BASIS	rimp2-cc-pvtz
SOLVENT_METHOD	PCM
PURECART	11111
SYMMETRY	false
MEM_TOTAL	110000
SCF_CONVERGENCE = 6
THRESH=10
GUI = 2
$end

$solvent
dielectric 4.90
$end
--------------------------------------------------------------

             Standard Nuclear Orientation (Angstroms)
    I     Atom           X                Y                Z
 ----------------------------------------------------------------
    1      C      -0.0145600000    -8.5177020000    -0.3205890000
    2      C       0.1802110000    -7.6415750000     0.7372400000
    3      S      -0.2995530000    -7.6386340000    -1.8423560000
    4      C       0.1148730000    -6.2647850000     0.3664880000
    5      H       0.3680610000    -7.9660810000     1.7685280000
    6      C      -0.1312360000    -6.0727140000    -1.0386370000
    7      C      -0.2534350000    -4.7870490000    -1.5881970000
    8      C       0.2490140000    -5.1628010000     1.2588310000
    9      C       0.1225130000    -3.8748170000     0.7096950000
   10      C      -0.1210430000    -3.6839520000    -0.6974300000
   11      O       0.5059330000    -5.4997720000     2.5533230000
   12      O      -0.5126970000    -4.4590550000    -2.8883690000
   13      C      -0.0808690000    -5.3290630000    -3.9276250000
   14      H      -0.1731590000    -4.7556940000    -4.8696560000
   15      H      -0.7163630000    -6.2380950000    -4.0074590000
   16      H       0.9780720000    -5.6372620000    -3.7895650000
   17      C       0.2469490000    -4.5722610000     3.6000640000
   18      H       0.3445740000    -5.1397430000     4.5448870000
   19      H      -0.7798980000    -4.1531310000     3.5320740000
   20      H       0.9832610000    -3.7395310000     3.6123780000
   21      C      -0.1880090000    -2.3066540000    -1.0642460000
   22      S       0.2786440000    -2.3065010000     1.5173600000
   23      C       0.0000000000    -1.4351850000     0.0000000000
   24      H      -0.3730170000    -1.9781380000    -2.0946850000
   25      C       0.0000000000     0.0000000000     0.0000000000
   26      S       0.7837860000     0.4519720000     1.5075410000
   27      C       2.1452610000     1.2389080000     0.7188730000
   28      C       0.7836500000     0.4515720000    -1.0678720000
   29      C       1.9863960000     1.1486480000    -0.6864100000
   30      S       0.5741330000     0.3273170000    -2.8055160000
   31      C       2.0883630000     1.2079430000    -3.0545300000
   32      C       2.7005480000     1.5642210000    -1.8625510000
   33      F       3.8557180000     2.2367060000    -1.8190880000
   34      C       2.4773070000     1.4303180000    -4.4560840000
   35      O       1.8145920000     1.0384820000    -5.4065100000
   36      O       3.6431620000     2.1120420000    -4.5692250000
   37      C       4.0745300000     2.3550610000    -5.9162070000
   38      H       5.0245560000     2.9116270000    -5.8330640000
   39      H       3.3220100000     2.9518600000    -6.4701680000
   40      H       4.2294900000     1.4009100000    -6.4592930000
   41      H       2.9449860000     1.7022600000     1.3064860000
   42      H      -0.9001770000    -9.1436230000    -0.1594750000
   43      H       0.8665660000    -9.1494410000    -0.4836040000
   44      H      -1.0622460000    -1.4431750000     0.1948560000
 ----------------------------------------------------------------

   11   -2755.2537550632      8.65e-07  Convergence criterion met
 Total energy in the final basis set =    -2755.2537550632
        RIMP2         total energy =     -2760.3637199786 a.u.

                    Orbital Energies (a.u.)
 --------------------------------------------------------------

 Alpha MOs
 -- Occupied --
-92.0128 -92.0112 -91.9768 -91.9535 -26.3471 -20.6165 -20.5854 -20.5835
-20.5630 -11.4117 -11.3882 -11.3333 -11.3188 -11.3070 -11.3007 -11.3000
-11.2900 -11.2891 -11.2832 -11.2810 -11.2789 -11.2739 -11.2707 -11.2697
-11.2658 -11.2542 -11.2489 -11.2450 -11.2260  -9.0129  -9.0110  -8.9791
 -8.9562  -6.6936  -6.6926  -6.6924  -6.6919  -6.6912  -6.6902  -6.6600
 -6.6591  -6.6578  -6.6374  -6.6365  -6.6355  -1.6641  -1.4690  -1.4076
 -1.4064  -1.3718  -1.2415  -1.2002  -1.1699  -1.1417  -1.0972  -1.0501
 -1.0435  -1.0290  -1.0013  -0.9942  -0.9665  -0.9603  -0.9458  -0.9400
 -0.8923  -0.8732  -0.8591  -0.8159  -0.7999  -0.7907  -0.7798  -0.7632
 -0.7587  -0.7368  -0.7287  -0.7159  -0.6972  -0.6908  -0.6863  -0.6808
 -0.6756  -0.6623  -0.6549  -0.6466  -0.6400  -0.6306  -0.6155  -0.6126
 -0.6107  -0.6034  -0.5905  -0.5808  -0.5691  -0.5666  -0.5569  -0.5545
 -0.5370  -0.5344  -0.5312  -0.5231  -0.5152  -0.5088  -0.5062  -0.4982
 -0.4884  -0.4809  -0.4773  -0.4745  -0.4677  -0.4628  -0.4494  -0.4424
 -0.4306  -0.3890  -0.3818  -0.3671  -0.3476  -0.3093  -0.2845  -0.2087

          Ground-State Mulliken Net Atomic Charges

     Atom                 Charge (a.u.)
  ----------------------------------------
      1 C                    -0.068197
      2 C                    -0.291957
      3 S                    -0.146478
      4 C                    -0.039152
      5 H                     0.189140
      6 C                    -0.058502
      7 C                     0.230391
      8 C                     0.216838
      9 C                    -0.072293
     10 C                    -0.064296
     11 O                    -0.335991
     12 O                    -0.345030
     13 C                    -0.083036
     14 H                     0.120209
     15 H                     0.092450
     16 H                     0.092306
     17 C                    -0.088027
     18 H                     0.123350
     19 H                     0.091118
     20 H                     0.088142
     21 C                    -0.233076
     22 S                    -0.099963
     23 C                     0.033567
     24 H                     0.202178
     25 C                    -0.175861
     26 S                     0.098539
     27 C                    -0.126171
     28 C                     0.085473
     29 C                    -0.126450
     30 S                     0.054269
     31 C                    -0.160379
     32 C                     0.402889
     33 F                    -0.203950
     34 C                     0.449207
     35 O                    -0.462207
     36 O                    -0.301165
     37 C                    -0.058165
     38 H                     0.121840
     39 H                     0.095333
     40 H                     0.095450
     41 H                     0.221596
     42 H                     0.112997
     43 H                     0.110534
     44 H                     0.212527
  ----------------------------------------
  Sum of atomic charges =     0.000000

                    Cartesian Multipole Moments
 -----------------------------------------------------------------
    Charge (ESU x 10^10)
                -0.0000
    Dipole Moment (Debye)
         X       3.1531      Y       4.3361      Z       2.6667
       Tot       5.9879
    Quadrupole Moments (Debye-Ang)
        XX    -187.6005     XY       7.4178     YY    -203.9757
        XZ      -9.0899     YZ      -7.0166     ZZ    -186.2536

 Total job time:  341.20s(wall), 10831.27s(cpu)
        *  Thank you very much for using Q-Chem.  Have a nice day.  *
