 Q-Chem 5.4, Q-Chem, Inc., Pleasanton, CA (2021)
 Q-Chem 5.4.0 for Intel X86 EM64T Linux

User input:
--------------------------------------------------------------
$molecule
0 1
C	0.306235	-8.517702	0.095966
C	-0.754415	-7.641575	-0.082807
S	1.833702	-7.638634	0.348635
C	-0.383675	-6.264785	-0.017401
H	-1.787757	-7.966081	-0.259008
C	1.020885	-6.072714	0.231913
C	1.579097	-4.787049	0.305044
C	-1.268082	-5.162801	-0.196549
C	-0.708796	-3.874817	-0.127606
C	0.696769	-3.683952	0.124792
O	-2.572378	-5.499772	-0.397867
O	2.889532	-4.459055	0.506103
C	3.718420	-5.329063	1.267335
H	4.635204	-4.755694	1.502804
H	4.010790	-6.238095	0.697471
H	3.226506	-5.637262	2.215194
C	-3.467415	-4.572261	-0.999238
H	-4.388648	-5.139743	-1.230649
H	-3.052323	-4.153131	-1.940905
H	-3.730819	-3.739531	-0.311543
C	1.064366	-2.306654	0.187323
S	-1.521154	-2.306501	-0.257128
C	-0.000000	-1.435185	-0.000000
H	2.095939	-1.978138	0.365903
C	0.000000	0.000000	0.000000
S	0.783786	0.451972	1.507541
C	2.145261	1.238908	0.718873
C	0.783650	0.451572	-1.067872
C	1.986396	1.148648	-0.686410
S	0.574133	0.327317	-2.805516
C	2.088363	1.207943	-3.054530
C	2.700548	1.564221	-1.862551
F	3.855718	2.236706	-1.819088
C	2.477307	1.430318	-4.456084
O	1.814592	1.038482	-5.406510
O	3.643162	2.112042	-4.569225
C	4.074530	2.355061	-5.916207
H	5.024556	2.911627	-5.833064
H	3.322010	2.951860	-6.470168
H	4.229490	1.400910	-6.459293
H	2.944986	1.702260	1.306486
H	0.457736	-9.143623	-0.791346
H	0.158056	-9.149441	0.979708
H	0.180205	-1.443175	-1.064830
$end

$rem
JOBTYPE		SP
EXCHANGE	HF
CORRELATION	pRIMP2
BASIS		cc-pvtz
METHOD		rimp2
AUX_BASIS	rimp2-cc-pvtz
SOLVENT_METHOD	PCM
PURECART	11111
SYMMETRY	false
MEM_TOTAL	110000
SCF_CONVERGENCE = 6
THRESH=10
GUI = 2
$end

$solvent
dielectric 4.90
$end
--------------------------------------------------------------

             Standard Nuclear Orientation (Angstroms)
    I     Atom           X                Y                Z
 ----------------------------------------------------------------
    1      C       0.3062350000    -8.5177020000     0.0959660000
    2      C      -0.7544150000    -7.6415750000    -0.0828070000
    3      S       1.8337020000    -7.6386340000     0.3486350000
    4      C      -0.3836750000    -6.2647850000    -0.0174010000
    5      H      -1.7877570000    -7.9660810000    -0.2590080000
    6      C       1.0208850000    -6.0727140000     0.2319130000
    7      C       1.5790970000    -4.7870490000     0.3050440000
    8      C      -1.2680820000    -5.1628010000    -0.1965490000
    9      C      -0.7087960000    -3.8748170000    -0.1276060000
   10      C       0.6967690000    -3.6839520000     0.1247920000
   11      O      -2.5723780000    -5.4997720000    -0.3978670000
   12      O       2.8895320000    -4.4590550000     0.5061030000
   13      C       3.7184200000    -5.3290630000     1.2673350000
   14      H       4.6352040000    -4.7556940000     1.5028040000
   15      H       4.0107900000    -6.2380950000     0.6974710000
   16      H       3.2265060000    -5.6372620000     2.2151940000
   17      C      -3.4674150000    -4.5722610000    -0.9992380000
   18      H      -4.3886480000    -5.1397430000    -1.2306490000
   19      H      -3.0523230000    -4.1531310000    -1.9409050000
   20      H      -3.7308190000    -3.7395310000    -0.3115430000
   21      C       1.0643660000    -2.3066540000     0.1873230000
   22      S      -1.5211540000    -2.3065010000    -0.2571280000
   23      C       0.0000000000    -1.4351850000     0.0000000000
   24      H       2.0959390000    -1.9781380000     0.3659030000
   25      C       0.0000000000     0.0000000000     0.0000000000
   26      S       0.7837860000     0.4519720000     1.5075410000
   27      C       2.1452610000     1.2389080000     0.7188730000
   28      C       0.7836500000     0.4515720000    -1.0678720000
   29      C       1.9863960000     1.1486480000    -0.6864100000
   30      S       0.5741330000     0.3273170000    -2.8055160000
   31      C       2.0883630000     1.2079430000    -3.0545300000
   32      C       2.7005480000     1.5642210000    -1.8625510000
   33      F       3.8557180000     2.2367060000    -1.8190880000
   34      C       2.4773070000     1.4303180000    -4.4560840000
   35      O       1.8145920000     1.0384820000    -5.4065100000
   36      O       3.6431620000     2.1120420000    -4.5692250000
   37      C       4.0745300000     2.3550610000    -5.9162070000
   38      H       5.0245560000     2.9116270000    -5.8330640000
   39      H       3.3220100000     2.9518600000    -6.4701680000
   40      H       4.2294900000     1.4009100000    -6.4592930000
   41      H       2.9449860000     1.7022600000     1.3064860000
   42      H       0.4577360000    -9.1436230000    -0.7913460000
   43      H       0.1580560000    -9.1494410000     0.9797080000
   44      H       0.1802050000    -1.4431750000    -1.0648300000
 ----------------------------------------------------------------

   11   -2755.2759917352      7.33e-07  Convergence criterion met
 Total energy in the final basis set =    -2755.2759917352
        RIMP2         total energy =     -2760.3790073705 a.u.

                    Orbital Energies (a.u.)
 --------------------------------------------------------------

 Alpha MOs
 -- Occupied --
-92.0139 -92.0119 -91.9653 -91.9563 -26.3487 -20.6168 -20.5864 -20.5830
-20.5633 -11.4122 -11.3904 -11.3367 -11.3228 -11.3074 -11.3010 -11.3009
-11.2902 -11.2901 -11.2825 -11.2814 -11.2780 -11.2711 -11.2704 -11.2702
-11.2688 -11.2555 -11.2541 -11.2475 -11.2319  -9.0136  -9.0116  -8.9679
 -8.9590  -6.6945  -6.6937  -6.6928  -6.6922  -6.6913  -6.6912  -6.6490
 -6.6481  -6.6469  -6.6402  -6.6393  -6.6383  -1.6656  -1.4694  -1.4085
 -1.4061  -1.3722  -1.2450  -1.1987  -1.1718  -1.1423  -1.0998  -1.0522
 -1.0424  -1.0287  -1.0001  -0.9936  -0.9667  -0.9578  -0.9482  -0.9414
 -0.8899  -0.8751  -0.8581  -0.8199  -0.7980  -0.7888  -0.7812  -0.7664
 -0.7605  -0.7336  -0.7301  -0.7156  -0.7024  -0.6924  -0.6870  -0.6788
 -0.6759  -0.6686  -0.6537  -0.6467  -0.6377  -0.6287  -0.6180  -0.6149
 -0.6097  -0.6030  -0.5928  -0.5768  -0.5705  -0.5634  -0.5554  -0.5545
 -0.5489  -0.5327  -0.5266  -0.5179  -0.5141  -0.5098  -0.5052  -0.4984
 -0.4876  -0.4833  -0.4771  -0.4744  -0.4674  -0.4652  -0.4550  -0.4428
 -0.4182  -0.3961  -0.3804  -0.3685  -0.3480  -0.3168  -0.2852  -0.2163

          Ground-State Mulliken Net Atomic Charges

     Atom                 Charge (a.u.)
  ----------------------------------------
      1 C                    -0.069186
      2 C                    -0.273875
      3 S                    -0.140066
      4 C                    -0.038867
      5 H                     0.191784
      6 C                    -0.052102
      7 C                     0.221331
      8 C                     0.215302
      9 C                    -0.070805
     10 C                    -0.061761
     11 O                    -0.336850
     12 O                    -0.344750
     13 C                    -0.082693
     14 H                     0.118837
     15 H                     0.092311
     16 H                     0.092635
     17 C                    -0.086012
     18 H                     0.121744
     19 H                     0.091108
     20 H                     0.090291
     21 C                    -0.255805
     22 S                    -0.113109
     23 C                     0.062623
     24 H                     0.207708
     25 C                    -0.197542
     26 S                     0.103517
     27 C                    -0.120331
     28 C                     0.077895
     29 C                    -0.115278
     30 S                     0.055447
     31 C                    -0.155898
     32 C                     0.400723
     33 F                    -0.202489
     34 C                     0.448954
     35 O                    -0.461601
     36 O                    -0.301304
     37 C                    -0.057984
     38 H                     0.121796
     39 H                     0.095487
     40 H                     0.095652
     41 H                     0.221758
     42 H                     0.115642
     43 H                     0.113136
     44 H                     0.182629
  ----------------------------------------
  Sum of atomic charges =     0.000000

                    Cartesian Multipole Moments
 -----------------------------------------------------------------
    Charge (ESU x 10^10)
                 0.0000
    Dipole Moment (Debye)
         X       3.9937      Y       3.5826      Z       1.8801
       Tot       5.6850
    Quadrupole Moments (Debye-Ang)
        XX    -174.8234     XY      10.9397     YY    -194.2685
        XZ       1.1212     YZ      -3.6386     ZZ    -199.4217

 Total job time:  334.21s(wall), 10798.41s(cpu)
        *  Thank you very much for using Q-Chem.  Have a nice day.  *
