 Q-Chem 5.4, Q-Chem, Inc., Pleasanton, CA (2021)
 Q-Chem 5.4.0 for Intel X86 EM64T Linux

User input:
--------------------------------------------------------------
$molecule
0 1
C	-0.320589	-8.517702	0.014560
C	0.737240	-7.641575	-0.180211
S	-1.842356	-7.638634	0.299553
C	0.366488	-6.264785	-0.114873
H	1.768528	-7.966081	-0.368061
C	-1.038637	-6.072714	0.131236
C	-1.588197	-4.787049	0.253435
C	1.258831	-5.162801	-0.249014
C	0.709695	-3.874817	-0.122513
C	-0.697430	-3.683952	0.121043
O	2.553323	-5.499772	-0.505933
O	-2.888369	-4.459055	0.512697
C	-3.927625	-5.329063	0.080869
H	-4.869656	-4.755694	0.173159
H	-4.007459	-6.238095	0.716363
H	-3.789565	-5.637262	-0.978072
C	3.600064	-4.572261	-0.246949
H	4.544887	-5.139743	-0.344574
H	3.532074	-4.153131	0.779898
H	3.612378	-3.739531	-0.983261
C	-1.064246	-2.306654	0.188009
S	1.517360	-2.306501	-0.278644
C	-0.000000	-1.435185	-0.000000
H	-2.094685	-1.978138	0.373017
C	0.000000	0.000000	0.000000
S	0.309893	0.850039	1.507541
C	0.847011	2.328006	0.718873
C	0.310046	0.849645	-1.067872
C	0.783331	2.156746	-0.686410
S	0.229416	0.619785	-2.805516
C	0.823328	2.267711	-3.054530
C	1.063278	2.934142	-1.862551
F	1.515925	4.191824	-1.819088
C	0.978337	2.688069	-4.456084
O	0.722535	1.961921	-5.406510
O	1.433229	3.959697	-4.569225
C	1.607467	4.423139	-5.916207
H	1.977475	5.460158	-5.833064
H	0.647388	4.396602	-6.470168
H	2.339490	3.791823	-6.459293
H	1.161798	3.197007	1.306486
H	-0.159475	-9.143623	0.900177
H	-0.483604	-9.149441	-0.866566
H	0.194856	-1.443175	1.062246
$end

$rem
JOBTYPE		SP
EXCHANGE	HF
CORRELATION	pRIMP2
BASIS		cc-pvtz
METHOD		rimp2
AUX_BASIS	rimp2-cc-pvtz
SOLVENT_METHOD	PCM
PURECART	11111
SYMMETRY	false
MEM_TOTAL	110000
SCF_CONVERGENCE = 6
THRESH=10
GUI = 2
$end

$solvent
dielectric 4.90
$end
--------------------------------------------------------------

             Standard Nuclear Orientation (Angstroms)
    I     Atom           X                Y                Z
 ----------------------------------------------------------------
    1      C      -0.3205890000    -8.5177020000     0.0145600000
    2      C       0.7372400000    -7.6415750000    -0.1802110000
    3      S      -1.8423560000    -7.6386340000     0.2995530000
    4      C       0.3664880000    -6.2647850000    -0.1148730000
    5      H       1.7685280000    -7.9660810000    -0.3680610000
    6      C      -1.0386370000    -6.0727140000     0.1312360000
    7      C      -1.5881970000    -4.7870490000     0.2534350000
    8      C       1.2588310000    -5.1628010000    -0.2490140000
    9      C       0.7096950000    -3.8748170000    -0.1225130000
   10      C      -0.6974300000    -3.6839520000     0.1210430000
   11      O       2.5533230000    -5.4997720000    -0.5059330000
   12      O      -2.8883690000    -4.4590550000     0.5126970000
   13      C      -3.9276250000    -5.3290630000     0.0808690000
   14      H      -4.8696560000    -4.7556940000     0.1731590000
   15      H      -4.0074590000    -6.2380950000     0.7163630000
   16      H      -3.7895650000    -5.6372620000    -0.9780720000
   17      C       3.6000640000    -4.5722610000    -0.2469490000
   18      H       4.5448870000    -5.1397430000    -0.3445740000
   19      H       3.5320740000    -4.1531310000     0.7798980000
   20      H       3.6123780000    -3.7395310000    -0.9832610000
   21      C      -1.0642460000    -2.3066540000     0.1880090000
   22      S       1.5173600000    -2.3065010000    -0.2786440000
   23      C       0.0000000000    -1.4351850000     0.0000000000
   24      H      -2.0946850000    -1.9781380000     0.3730170000
   25      C       0.0000000000     0.0000000000     0.0000000000
   26      S       0.3098930000     0.8500390000     1.5075410000
   27      C       0.8470110000     2.3280060000     0.7188730000
   28      C       0.3100460000     0.8496450000    -1.0678720000
   29      C       0.7833310000     2.1567460000    -0.6864100000
   30      S       0.2294160000     0.6197850000    -2.8055160000
   31      C       0.8233280000     2.2677110000    -3.0545300000
   32      C       1.0632780000     2.9341420000    -1.8625510000
   33      F       1.5159250000     4.1918240000    -1.8190880000
   34      C       0.9783370000     2.6880690000    -4.4560840000
   35      O       0.7225350000     1.9619210000    -5.4065100000
   36      O       1.4332290000     3.9596970000    -4.5692250000
   37      C       1.6074670000     4.4231390000    -5.9162070000
   38      H       1.9774750000     5.4601580000    -5.8330640000
   39      H       0.6473880000     4.3966020000    -6.4701680000
   40      H       2.3394900000     3.7918230000    -6.4592930000
   41      H       1.1617980000     3.1970070000     1.3064860000
   42      H      -0.1594750000    -9.1436230000     0.9001770000
   43      H      -0.4836040000    -9.1494410000    -0.8665660000
   44      H       0.1948560000    -1.4431750000     1.0622460000
 ----------------------------------------------------------------

   11   -2755.3379813707      7.42e-07  Convergence criterion met
 Total energy in the final basis set =    -2755.3379813707
        RIMP2         total energy =     -2760.4263751541 a.u.

                    Orbital Energies (a.u.)
 --------------------------------------------------------------

 Alpha MOs
 -- Occupied --
-92.0169 -91.9992 -91.9766 -91.9571 -26.3438 -20.6150 -20.5868 -20.5860
-20.5615 -11.4096 -11.3830 -11.3142 -11.3084 -11.3058 -11.3012 -11.2980
-11.2966 -11.2890 -11.2855 -11.2839 -11.2825 -11.2822 -11.2781 -11.2713
-11.2713 -11.2573 -11.2553 -11.2487 -11.2347  -9.0157  -8.9992  -8.9788
 -8.9598  -6.6964  -6.6958  -6.6953  -6.6802  -6.6795  -6.6784  -6.6599
 -6.6590  -6.6577  -6.6410  -6.6401  -6.6391  -1.6609  -1.4675  -1.4096
 -1.4084  -1.3701  -1.2297  -1.2020  -1.1727  -1.1381  -1.0988  -1.0458
 -1.0439  -1.0252  -1.0031  -0.9958  -0.9634  -0.9582  -0.9477  -0.9405
 -0.8926  -0.8690  -0.8654  -0.8151  -0.7968  -0.7888  -0.7839  -0.7672
 -0.7567  -0.7376  -0.7258  -0.7170  -0.6966  -0.6866  -0.6847  -0.6792
 -0.6741  -0.6605  -0.6555  -0.6480  -0.6340  -0.6296  -0.6191  -0.6146
 -0.6110  -0.5995  -0.5913  -0.5758  -0.5719  -0.5631  -0.5591  -0.5553
 -0.5463  -0.5328  -0.5312  -0.5241  -0.5123  -0.5079  -0.5068  -0.5007
 -0.4854  -0.4818  -0.4759  -0.4740  -0.4694  -0.4685  -0.4604  -0.4458
 -0.4226  -0.3995  -0.3843  -0.3692  -0.3511  -0.3023  -0.2887  -0.2197

          Ground-State Mulliken Net Atomic Charges

     Atom                 Charge (a.u.)
  ----------------------------------------
      1 C                    -0.069886
      2 C                    -0.265549
      3 S                    -0.138088
      4 C                    -0.042288
      5 H                     0.192664
      6 C                    -0.053914
      7 C                     0.225795
      8 C                     0.221488
      9 C                    -0.072690
     10 C                    -0.046014
     11 O                    -0.335139
     12 O                    -0.343377
     13 C                    -0.082625
     14 H                     0.119767
     15 H                     0.091925
     16 H                     0.093139
     17 C                    -0.086736
     18 H                     0.122959
     19 H                     0.091511
     20 H                     0.090832
     21 C                    -0.266863
     22 S                    -0.069649
     23 C                     0.056435
     24 H                     0.203716
     25 C                    -0.056682
     26 S                     0.092286
     27 C                    -0.184753
     28 C                    -0.022872
     29 C                    -0.088711
     30 S                     0.017696
     31 C                    -0.156321
     32 C                     0.395214
     33 F                    -0.206552
     34 C                     0.445400
     35 O                    -0.460485
     36 O                    -0.300889
     37 C                    -0.058384
     38 H                     0.121310
     39 H                     0.095174
     40 H                     0.095213
     41 H                     0.219320
     42 H                     0.116393
     43 H                     0.114288
     44 H                     0.185942
  ----------------------------------------
  Sum of atomic charges =     0.000000

                    Cartesian Multipole Moments
 -----------------------------------------------------------------
    Charge (ESU x 10^10)
                 0.0000
    Dipole Moment (Debye)
         X       1.2345      Y       3.4033      Z       3.4191
       Tot       4.9796
    Quadrupole Moments (Debye-Ang)
        XX    -182.0971     XY       1.6074     YY    -179.8357
        XZ       0.3410     YZ      -6.2316     ZZ    -205.4321

 Total job time:  355.21s(wall), 11155.84s(cpu)
        *  Thank you very much for using Q-Chem.  Have a nice day.  *
