 Q-Chem 5.4, Q-Chem, Inc., Pleasanton, CA (2021)
 Q-Chem 5.4.0 for Intel X86 EM64T Linux

User input:
--------------------------------------------------------------
$molecule
0 1
C	0.070009	-8.517702	0.313191
C	-0.305494	-7.641575	-0.694746
S	0.614924	-7.638634	1.762350
C	-0.176768	-6.264785	-0.340973
H	-0.669571	-7.966081	-1.677747
C	0.309600	-6.072714	1.000069
C	0.525372	-4.787049	1.520060
C	-0.463825	-5.162801	-1.196466
C	-0.243888	-3.874817	-0.677639
C	0.240312	-3.683952	0.665815
O	-0.941626	-5.499772	-2.426678
O	1.006468	-4.459055	2.755460
C	0.761666	-5.329063	3.853913
H	1.016135	-4.755694	4.765607
H	1.401368	-6.238095	3.822182
H	-0.305161	-5.637262	3.901833
C	-0.868342	-4.572261	-3.502489
H	-1.128551	-5.139743	-4.416005
H	0.154712	-4.153131	-3.613841
H	-1.595605	-3.739531	-3.386756
C	0.369957	-2.306654	1.015430
S	-0.537898	-2.306501	-1.445922
C	-0.000000	-1.435185	-0.000000
H	0.731088	-1.978138	1.998088
C	0.000000	0.000000	0.000000
S	0.783786	0.451972	1.507541
C	2.145261	1.238908	0.718873
C	0.783650	0.451572	-1.067872
C	1.986396	1.148648	-0.686410
S	0.574133	0.327317	-2.805516
C	2.088363	1.207943	-3.054530
C	2.700548	1.564221	-1.862551
F	3.855718	2.236706	-1.819088
C	2.477307	1.430318	-4.456084
O	1.814592	1.038482	-5.406510
O	3.643162	2.112042	-4.569225
C	4.074530	2.355061	-5.916207
H	5.024556	2.911627	-5.833064
H	3.322010	2.951860	-6.470168
H	4.229490	1.400910	-6.459293
H	2.944986	1.702260	1.306486
H	0.914194	-9.143623	0.000738
H	-0.769424	-9.149441	0.626735
H	1.012272	-1.443175	-0.376353
$end

$rem
JOBTYPE		SP
EXCHANGE	HF
CORRELATION	pRIMP2
BASIS		cc-pvtz
METHOD		rimp2
AUX_BASIS	rimp2-cc-pvtz
SOLVENT_METHOD	PCM
PURECART	11111
SYMMETRY	false
MEM_TOTAL	110000
SCF_CONVERGENCE = 6
THRESH=10
GUI = 2
$end

$solvent
dielectric 4.90
$end
--------------------------------------------------------------

             Standard Nuclear Orientation (Angstroms)
    I     Atom           X                Y                Z
 ----------------------------------------------------------------
    1      C       0.0700090000    -8.5177020000     0.3131910000
    2      C      -0.3054940000    -7.6415750000    -0.6947460000
    3      S       0.6149240000    -7.6386340000     1.7623500000
    4      C      -0.1767680000    -6.2647850000    -0.3409730000
    5      H      -0.6695710000    -7.9660810000    -1.6777470000
    6      C       0.3096000000    -6.0727140000     1.0000690000
    7      C       0.5253720000    -4.7870490000     1.5200600000
    8      C      -0.4638250000    -5.1628010000    -1.1964660000
    9      C      -0.2438880000    -3.8748170000    -0.6776390000
   10      C       0.2403120000    -3.6839520000     0.6658150000
   11      O      -0.9416260000    -5.4997720000    -2.4266780000
   12      O       1.0064680000    -4.4590550000     2.7554600000
   13      C       0.7616660000    -5.3290630000     3.8539130000
   14      H       1.0161350000    -4.7556940000     4.7656070000
   15      H       1.4013680000    -6.2380950000     3.8221820000
   16      H      -0.3051610000    -5.6372620000     3.9018330000
   17      C      -0.8683420000    -4.5722610000    -3.5024890000
   18      H      -1.1285510000    -5.1397430000    -4.4160050000
   19      H       0.1547120000    -4.1531310000    -3.6138410000
   20      H      -1.5956050000    -3.7395310000    -3.3867560000
   21      C       0.3699570000    -2.3066540000     1.0154300000
   22      S      -0.5378980000    -2.3065010000    -1.4459220000
   23      C       0.0000000000    -1.4351850000     0.0000000000
   24      H       0.7310880000    -1.9781380000     1.9980880000
   25      C       0.0000000000     0.0000000000     0.0000000000
   26      S       0.7837860000     0.4519720000     1.5075410000
   27      C       2.1452610000     1.2389080000     0.7188730000
   28      C       0.7836500000     0.4515720000    -1.0678720000
   29      C       1.9863960000     1.1486480000    -0.6864100000
   30      S       0.5741330000     0.3273170000    -2.8055160000
   31      C       2.0883630000     1.2079430000    -3.0545300000
   32      C       2.7005480000     1.5642210000    -1.8625510000
   33      F       3.8557180000     2.2367060000    -1.8190880000
   34      C       2.4773070000     1.4303180000    -4.4560840000
   35      O       1.8145920000     1.0384820000    -5.4065100000
   36      O       3.6431620000     2.1120420000    -4.5692250000
   37      C       4.0745300000     2.3550610000    -5.9162070000
   38      H       5.0245560000     2.9116270000    -5.8330640000
   39      H       3.3220100000     2.9518600000    -6.4701680000
   40      H       4.2294900000     1.4009100000    -6.4592930000
   41      H       2.9449860000     1.7022600000     1.3064860000
   42      H       0.9141940000    -9.1436230000     0.0007380000
   43      H      -0.7694240000    -9.1494410000     0.6267350000
   44      H       1.0122720000    -1.4431750000    -0.3763530000
 ----------------------------------------------------------------

   11   -2755.2597305814      8.17e-07  Convergence criterion met
 Total energy in the final basis set =    -2755.2597305814
        RIMP2         total energy =     -2760.3725901208 a.u.

                    Orbital Energies (a.u.)
 --------------------------------------------------------------

 Alpha MOs
 -- Occupied --
-92.0164 -92.0089 -91.9714 -91.9554 -26.3460 -20.6163 -20.5865 -20.5838
-20.5627 -11.4114 -11.3858 -11.3309 -11.3136 -11.3078 -11.3023 -11.2995
-11.2906 -11.2899 -11.2824 -11.2822 -11.2810 -11.2805 -11.2785 -11.2715
-11.2685 -11.2555 -11.2514 -11.2468 -11.2299  -9.0161  -9.0087  -8.9744
 -8.9581  -6.6967  -6.6958  -6.6956  -6.6896  -6.6888  -6.6878  -6.6555
 -6.6546  -6.6534  -6.6393  -6.6384  -6.6374  -1.6631  -1.4688  -1.4087
 -1.4068  -1.3716  -1.2477  -1.1996  -1.1720  -1.1424  -1.0989  -1.0510
 -1.0435  -1.0299  -1.0008  -0.9943  -0.9684  -0.9555  -0.9488  -0.9418
 -0.8914  -0.8747  -0.8560  -0.8219  -0.7958  -0.7862  -0.7809  -0.7663
 -0.7581  -0.7365  -0.7281  -0.7128  -0.7027  -0.6933  -0.6863  -0.6820
 -0.6753  -0.6693  -0.6539  -0.6471  -0.6373  -0.6313  -0.6173  -0.6146
 -0.6094  -0.6040  -0.5928  -0.5809  -0.5692  -0.5660  -0.5579  -0.5546
 -0.5451  -0.5336  -0.5297  -0.5224  -0.5162  -0.5101  -0.5065  -0.4974
 -0.4846  -0.4829  -0.4781  -0.4738  -0.4698  -0.4599  -0.4562  -0.4440
 -0.4289  -0.3971  -0.3745  -0.3701  -0.3493  -0.3099  -0.2842  -0.2108

          Ground-State Mulliken Net Atomic Charges

     Atom                 Charge (a.u.)
  ----------------------------------------
      1 C                    -0.068752
      2 C                    -0.279680
      3 S                    -0.143312
      4 C                    -0.039665
      5 H                     0.191019
      6 C                    -0.052691
      7 C                     0.223696
      8 C                     0.216111
      9 C                    -0.059820
     10 C                    -0.053148
     11 O                    -0.335899
     12 O                    -0.345116
     13 C                    -0.082808
     14 H                     0.119029
     15 H                     0.092344
     16 H                     0.092985
     17 C                    -0.087342
     18 H                     0.122675
     19 H                     0.091205
     20 H                     0.089918
     21 C                    -0.265339
     22 S                    -0.104588
     23 C                     0.077188
     24 H                     0.200115
     25 C                    -0.159632
     26 S                     0.107620
     27 C                    -0.150054
     28 C                     0.069940
     29 C                    -0.127518
     30 S                     0.063403
     31 C                    -0.159616
     32 C                     0.400797
     33 F                    -0.205505
     34 C                     0.449049
     35 O                    -0.461612
     36 O                    -0.301038
     37 C                    -0.058259
     38 H                     0.121716
     39 H                     0.095411
     40 H                     0.095348
     41 H                     0.221927
     42 H                     0.114591
     43 H                     0.112290
     44 H                     0.173020
  ----------------------------------------
  Sum of atomic charges =     0.000000

                    Cartesian Multipole Moments
 -----------------------------------------------------------------
    Charge (ESU x 10^10)
                -0.0000
    Dipole Moment (Debye)
         X       3.9332      Y       3.3719      Z       2.3270
       Tot       5.6793
    Quadrupole Moments (Debye-Ang)
        XX    -188.9778     XY       9.0166     YY    -197.7392
        XZ      -6.1494     YZ      -0.2643     ZZ    -185.3719

 Total job time:  339.59s(wall), 10891.71s(cpu)
        *  Thank you very much for using Q-Chem.  Have a nice day.  *
