 Q-Chem 5.4, Q-Chem, Inc., Pleasanton, CA (2021)
 Q-Chem 5.4.0 for Intel X86 EM64T Linux

User input:
--------------------------------------------------------------
$molecule
0 1
C	-0.217225	-8.517702	-0.236226
C	0.611939	-7.641575	0.448921
S	-1.413715	-7.638634	-1.218777
C	0.323572	-6.264785	0.206907
H	1.418739	-7.966081	1.118185
C	-0.768156	-6.072714	-0.711285
C	-1.215016	-4.787049	-1.053725
C	0.999917	-5.162801	0.804258
C	0.550033	-3.874817	0.464908
C	-0.541024	-3.683952	-0.456457
O	2.028811	-5.499772	1.630752
O	-2.249357	-4.459055	-1.883064
C	-2.586579	-5.329063	-2.956754
H	-3.262802	-4.755694	-3.619069
H	-3.124711	-6.238095	-2.609423
H	-1.686639	-5.637262	-3.531667
C	2.503251	-4.572261	2.599073
H	3.185356	-5.139743	3.260097
H	1.672937	-4.153131	3.207034
H	3.075213	-3.739531	2.135214
C	-0.828107	-2.306654	-0.694410
S	1.188794	-2.306501	0.983256
C	0.000000	-1.435185	0.000000
H	-1.632185	-1.978138	-1.364851
C	0.000000	0.000000	0.000000
S	0.234628	0.873813	1.507541
C	0.640889	2.392969	0.718873
C	0.234815	0.873434	-1.067872
C	0.592377	2.216811	-0.686410
S	0.174526	0.637422	-2.805516
C	0.622551	2.330840	-3.054530
C	0.803505	3.015647	-1.862551
F	1.144815	4.307994	-1.819088
C	0.740334	2.763108	-4.456084
O	0.548793	2.017428	-5.406510
O	1.082665	4.069544	-4.569225
C	1.215848	4.546407	-5.916207
H	1.494066	5.611729	-5.833064
H	0.261736	4.436296	-6.470168
H	2.000108	3.981294	-6.459293
H	0.878739	3.286099	1.306486
H	-0.792084	-9.143623	0.456457
H	0.352973	-9.149441	-0.927480
H	-0.688477	-1.443175	0.832067
$end

$rem
JOBTYPE		SP
EXCHANGE	HF
CORRELATION	pRIMP2
BASIS		cc-pvtz
METHOD		rimp2
AUX_BASIS	rimp2-cc-pvtz
SOLVENT_METHOD	PCM
PURECART	11111
SYMMETRY	false
MEM_TOTAL	110000
SCF_CONVERGENCE = 6
THRESH=10
GUI = 2
$end

$solvent
dielectric 4.90
$end
--------------------------------------------------------------

             Standard Nuclear Orientation (Angstroms)
    I     Atom           X                Y                Z
 ----------------------------------------------------------------
    1      C      -0.2172250000    -8.5177020000    -0.2362260000
    2      C       0.6119390000    -7.6415750000     0.4489210000
    3      S      -1.4137150000    -7.6386340000    -1.2187770000
    4      C       0.3235720000    -6.2647850000     0.2069070000
    5      H       1.4187390000    -7.9660810000     1.1181850000
    6      C      -0.7681560000    -6.0727140000    -0.7112850000
    7      C      -1.2150160000    -4.7870490000    -1.0537250000
    8      C       0.9999170000    -5.1628010000     0.8042580000
    9      C       0.5500330000    -3.8748170000     0.4649080000
   10      C      -0.5410240000    -3.6839520000    -0.4564570000
   11      O       2.0288110000    -5.4997720000     1.6307520000
   12      O      -2.2493570000    -4.4590550000    -1.8830640000
   13      C      -2.5865790000    -5.3290630000    -2.9567540000
   14      H      -3.2628020000    -4.7556940000    -3.6190690000
   15      H      -3.1247110000    -6.2380950000    -2.6094230000
   16      H      -1.6866390000    -5.6372620000    -3.5316670000
   17      C       2.5032510000    -4.5722610000     2.5990730000
   18      H       3.1853560000    -5.1397430000     3.2600970000
   19      H       1.6729370000    -4.1531310000     3.2070340000
   20      H       3.0752130000    -3.7395310000     2.1352140000
   21      C      -0.8281070000    -2.3066540000    -0.6944100000
   22      S       1.1887940000    -2.3065010000     0.9832560000
   23      C       0.0000000000    -1.4351850000     0.0000000000
   24      H      -1.6321850000    -1.9781380000    -1.3648510000
   25      C       0.0000000000     0.0000000000     0.0000000000
   26      S       0.2346280000     0.8738130000     1.5075410000
   27      C       0.6408890000     2.3929690000     0.7188730000
   28      C       0.2348150000     0.8734340000    -1.0678720000
   29      C       0.5923770000     2.2168110000    -0.6864100000
   30      S       0.1745260000     0.6374220000    -2.8055160000
   31      C       0.6225510000     2.3308400000    -3.0545300000
   32      C       0.8035050000     3.0156470000    -1.8625510000
   33      F       1.1448150000     4.3079940000    -1.8190880000
   34      C       0.7403340000     2.7631080000    -4.4560840000
   35      O       0.5487930000     2.0174280000    -5.4065100000
   36      O       1.0826650000     4.0695440000    -4.5692250000
   37      C       1.2158480000     4.5464070000    -5.9162070000
   38      H       1.4940660000     5.6117290000    -5.8330640000
   39      H       0.2617360000     4.4362960000    -6.4701680000
   40      H       2.0001080000     3.9812940000    -6.4592930000
   41      H       0.8787390000     3.2860990000     1.3064860000
   42      H      -0.7920840000    -9.1436230000     0.4564570000
   43      H       0.3529730000    -9.1494410000    -0.9274800000
   44      H      -0.6884770000    -1.4431750000     0.8320670000
 ----------------------------------------------------------------

   11   -2755.3404257214      8.14e-07  Convergence criterion met
 Total energy in the final basis set =    -2755.3404257214
        RIMP2         total energy =     -2760.4292273440 a.u.

                    Orbital Energies (a.u.)
 --------------------------------------------------------------

 Alpha MOs
 -- Occupied --
-92.0165 -91.9980 -91.9785 -91.9578 -26.3435 -20.6151 -20.5869 -20.5869
-20.5616 -11.4097 -11.3825 -11.3106 -11.3089 -11.3071 -11.3014 -11.2982
-11.2979 -11.2890 -11.2851 -11.2847 -11.2833 -11.2823 -11.2797 -11.2730
-11.2725 -11.2580 -11.2575 -11.2493 -11.2360  -9.0152  -8.9981  -8.9808
 -8.9605  -6.6960  -6.6954  -6.6949  -6.6791  -6.6784  -6.6773  -6.6619
 -6.6610  -6.6597  -6.6417  -6.6408  -6.6397  -1.6605  -1.4675  -1.4103
 -1.4087  -1.3703  -1.2292  -1.2027  -1.1735  -1.1378  -1.0997  -1.0460
 -1.0446  -1.0244  -1.0038  -0.9971  -0.9629  -0.9592  -0.9482  -0.9404
 -0.8936  -0.8687  -0.8664  -0.8121  -0.8001  -0.7887  -0.7845  -0.7674
 -0.7568  -0.7377  -0.7254  -0.7162  -0.6978  -0.6865  -0.6847  -0.6798
 -0.6741  -0.6609  -0.6562  -0.6484  -0.6352  -0.6308  -0.6196  -0.6147
 -0.6119  -0.5992  -0.5920  -0.5758  -0.5716  -0.5646  -0.5583  -0.5522
 -0.5483  -0.5336  -0.5311  -0.5279  -0.5134  -0.5077  -0.5072  -0.5012
 -0.4851  -0.4809  -0.4765  -0.4745  -0.4730  -0.4687  -0.4601  -0.4459
 -0.4273  -0.3971  -0.3854  -0.3699  -0.3512  -0.3003  -0.2887  -0.2189

          Ground-State Mulliken Net Atomic Charges

     Atom                 Charge (a.u.)
  ----------------------------------------
      1 C                    -0.069988
      2 C                    -0.262962
      3 S                    -0.136029
      4 C                    -0.043360
      5 H                     0.193054
      6 C                    -0.051888
      7 C                     0.223760
      8 C                     0.222538
      9 C                    -0.075828
     10 C                    -0.052009
     11 O                    -0.334772
     12 O                    -0.343625
     13 C                    -0.082666
     14 H                     0.120405
     15 H                     0.091786
     16 H                     0.093195
     17 C                    -0.087240
     18 H                     0.123360
     19 H                     0.091821
     20 H                     0.090188
     21 C                    -0.260925
     22 S                    -0.075145
     23 C                     0.070990
     24 H                     0.210764
     25 C                    -0.111974
     26 S                     0.082243
     27 C                    -0.180481
     28 C                     0.052365
     29 C                    -0.119084
     30 S                     0.005294
     31 C                    -0.155760
     32 C                     0.399811
     33 F                    -0.207083
     34 C                     0.444262
     35 O                    -0.460440
     36 O                    -0.300661
     37 C                    -0.058466
     38 H                     0.121409
     39 H                     0.095083
     40 H                     0.095248
     41 H                     0.218558
     42 H                     0.116860
     43 H                     0.114774
     44 H                     0.192619
  ----------------------------------------
  Sum of atomic charges =     0.000000

                    Cartesian Multipole Moments
 -----------------------------------------------------------------
    Charge (ESU x 10^10)
                 0.0000
    Dipole Moment (Debye)
         X       0.4261      Y       2.9399      Z       3.4973
       Tot       4.5887
    Quadrupole Moments (Debye-Ang)
        XX    -195.9403     XY       1.1957     YY    -176.8334
        XZ       6.3118     YZ      -9.6149     ZZ    -192.5791

 Total job time:  354.30s(wall), 11023.97s(cpu)
        *  Thank you very much for using Q-Chem.  Have a nice day.  *
