 Q-Chem 5.4, Q-Chem, Inc., Pleasanton, CA (2021)
 Q-Chem 5.4.0 for Intel X86 EM64T Linux

User input:
--------------------------------------------------------------
$molecule
0 1
C	0.320589	-8.517702	-0.014560
C	-0.737240	-7.641575	0.180211
S	1.842356	-7.638634	-0.299553
C	-0.366488	-6.264785	0.114873
H	-1.768528	-7.966081	0.368061
C	1.038637	-6.072714	-0.131236
C	1.588197	-4.787049	-0.253435
C	-1.258831	-5.162801	0.249014
C	-0.709695	-3.874817	0.122513
C	0.697430	-3.683952	-0.121043
O	-2.553323	-5.499772	0.505933
O	2.888369	-4.459055	-0.512697
C	3.927625	-5.329063	-0.080869
H	4.869656	-4.755694	-0.173159
H	4.007459	-6.238095	-0.716363
H	3.789565	-5.637262	0.978072
C	-3.600064	-4.572261	0.246949
H	-4.544887	-5.139743	0.344574
H	-3.532074	-4.153131	-0.779898
H	-3.612378	-3.739531	0.983261
C	1.064246	-2.306654	-0.188009
S	-1.517360	-2.306501	0.278644
C	-0.000000	-1.435185	-0.000000
H	2.094685	-1.978138	-0.373017
C	0.000000	0.000000	0.000000
S	0.309893	0.850039	1.507541
C	0.847011	2.328006	0.718873
C	0.310046	0.849645	-1.067872
C	0.783331	2.156746	-0.686410
S	0.229416	0.619785	-2.805516
C	0.823328	2.267711	-3.054530
C	1.063278	2.934142	-1.862551
F	1.515925	4.191824	-1.819088
C	0.978337	2.688069	-4.456084
O	0.722535	1.961921	-5.406510
O	1.433229	3.959697	-4.569225
C	1.607467	4.423139	-5.916207
H	1.977475	5.460158	-5.833064
H	0.647388	4.396602	-6.470168
H	2.339490	3.791823	-6.459293
H	1.161798	3.197007	1.306486
H	0.159475	-9.143623	-0.900177
H	0.483604	-9.149441	0.866566
H	-0.194856	-1.443175	-1.062246
$end

$rem
JOBTYPE		SP
EXCHANGE	HF
CORRELATION	pRIMP2
BASIS		cc-pvtz
METHOD		rimp2
AUX_BASIS	rimp2-cc-pvtz
SOLVENT_METHOD	PCM
PURECART	11111
SYMMETRY	false
MEM_TOTAL	110000
SCF_CONVERGENCE = 6
THRESH=10
GUI = 2
$end

$solvent
dielectric 4.90
$end
--------------------------------------------------------------

             Standard Nuclear Orientation (Angstroms)
    I     Atom           X                Y                Z
 ----------------------------------------------------------------
    1      C       0.3205890000    -8.5177020000    -0.0145600000
    2      C      -0.7372400000    -7.6415750000     0.1802110000
    3      S       1.8423560000    -7.6386340000    -0.2995530000
    4      C      -0.3664880000    -6.2647850000     0.1148730000
    5      H      -1.7685280000    -7.9660810000     0.3680610000
    6      C       1.0386370000    -6.0727140000    -0.1312360000
    7      C       1.5881970000    -4.7870490000    -0.2534350000
    8      C      -1.2588310000    -5.1628010000     0.2490140000
    9      C      -0.7096950000    -3.8748170000     0.1225130000
   10      C       0.6974300000    -3.6839520000    -0.1210430000
   11      O      -2.5533230000    -5.4997720000     0.5059330000
   12      O       2.8883690000    -4.4590550000    -0.5126970000
   13      C       3.9276250000    -5.3290630000    -0.0808690000
   14      H       4.8696560000    -4.7556940000    -0.1731590000
   15      H       4.0074590000    -6.2380950000    -0.7163630000
   16      H       3.7895650000    -5.6372620000     0.9780720000
   17      C      -3.6000640000    -4.5722610000     0.2469490000
   18      H      -4.5448870000    -5.1397430000     0.3445740000
   19      H      -3.5320740000    -4.1531310000    -0.7798980000
   20      H      -3.6123780000    -3.7395310000     0.9832610000
   21      C       1.0642460000    -2.3066540000    -0.1880090000
   22      S      -1.5173600000    -2.3065010000     0.2786440000
   23      C       0.0000000000    -1.4351850000     0.0000000000
   24      H       2.0946850000    -1.9781380000    -0.3730170000
   25      C       0.0000000000     0.0000000000     0.0000000000
   26      S       0.3098930000     0.8500390000     1.5075410000
   27      C       0.8470110000     2.3280060000     0.7188730000
   28      C       0.3100460000     0.8496450000    -1.0678720000
   29      C       0.7833310000     2.1567460000    -0.6864100000
   30      S       0.2294160000     0.6197850000    -2.8055160000
   31      C       0.8233280000     2.2677110000    -3.0545300000
   32      C       1.0632780000     2.9341420000    -1.8625510000
   33      F       1.5159250000     4.1918240000    -1.8190880000
   34      C       0.9783370000     2.6880690000    -4.4560840000
   35      O       0.7225350000     1.9619210000    -5.4065100000
   36      O       1.4332290000     3.9596970000    -4.5692250000
   37      C       1.6074670000     4.4231390000    -5.9162070000
   38      H       1.9774750000     5.4601580000    -5.8330640000
   39      H       0.6473880000     4.3966020000    -6.4701680000
   40      H       2.3394900000     3.7918230000    -6.4592930000
   41      H       1.1617980000     3.1970070000     1.3064860000
   42      H       0.1594750000    -9.1436230000    -0.9001770000
   43      H       0.4836040000    -9.1494410000     0.8665660000
   44      H      -0.1948560000    -1.4431750000    -1.0622460000
 ----------------------------------------------------------------

   11   -2755.3416990987      6.72e-07  Convergence criterion met
 Total energy in the final basis set =    -2755.3416990987
        RIMP2         total energy =     -2760.4309575522 a.u.

                    Orbital Energies (a.u.)
 --------------------------------------------------------------

 Alpha MOs
 -- Occupied --
-92.0109 -92.0014 -91.9752 -91.9580 -26.3449 -20.6155 -20.5870 -20.5864
-20.5620 -11.4103 -11.3847 -11.3143 -11.3087 -11.3065 -11.3063 -11.2989
-11.2981 -11.2893 -11.2858 -11.2839 -11.2827 -11.2820 -11.2794 -11.2727
-11.2714 -11.2578 -11.2574 -11.2494 -11.2365  -9.0100  -9.0016  -8.9775
 -8.9606  -6.6907  -6.6901  -6.6896  -6.6826  -6.6818  -6.6807  -6.6586
 -6.6577  -6.6565  -6.6418  -6.6409  -6.6399  -1.6619  -1.4680  -1.4099
 -1.4086  -1.3707  -1.2306  -1.2021  -1.1731  -1.1374  -1.1005  -1.0470
 -1.0453  -1.0239  -1.0028  -0.9966  -0.9629  -0.9586  -0.9484  -0.9416
 -0.8927  -0.8712  -0.8643  -0.8134  -0.7964  -0.7903  -0.7840  -0.7676
 -0.7591  -0.7351  -0.7267  -0.7106  -0.7009  -0.6946  -0.6854  -0.6796
 -0.6746  -0.6651  -0.6552  -0.6482  -0.6351  -0.6300  -0.6198  -0.6147
 -0.6112  -0.5994  -0.5926  -0.5773  -0.5709  -0.5654  -0.5573  -0.5543
 -0.5486  -0.5317  -0.5282  -0.5257  -0.5127  -0.5089  -0.5069  -0.5013
 -0.4851  -0.4816  -0.4759  -0.4747  -0.4699  -0.4681  -0.4599  -0.4458
 -0.4211  -0.4011  -0.3845  -0.3697  -0.3509  -0.3035  -0.2888  -0.2205

          Ground-State Mulliken Net Atomic Charges

     Atom                 Charge (a.u.)
  ----------------------------------------
      1 C                    -0.070327
      2 C                    -0.260651
      3 S                    -0.135518
      4 C                    -0.044701
      5 H                     0.193310
      6 C                    -0.052527
      7 C                     0.222582
      8 C                     0.229703
      9 C                    -0.085502
     10 C                    -0.047303
     11 O                    -0.335569
     12 O                    -0.343218
     13 C                    -0.082625
     14 H                     0.119926
     15 H                     0.092127
     16 H                     0.092565
     17 C                    -0.086166
     18 H                     0.122732
     19 H                     0.092372
     20 H                     0.090166
     21 C                    -0.246039
     22 S                    -0.071974
     23 C                     0.056543
     24 H                     0.207348
     25 C                    -0.075176
     26 S                     0.087872
     27 C                    -0.175449
     28 C                    -0.013022
     29 C                    -0.096859
     30 S                     0.007957
     31 C                    -0.158868
     32 C                     0.398003
     33 F                    -0.205286
     34 C                     0.445642
     35 O                    -0.461106
     36 O                    -0.300992
     37 C                    -0.058388
     38 H                     0.121499
     39 H                     0.095275
     40 H                     0.095238
     41 H                     0.217756
     42 H                     0.117337
     43 H                     0.114848
     44 H                     0.186464
  ----------------------------------------
  Sum of atomic charges =     0.000000

                    Cartesian Multipole Moments
 -----------------------------------------------------------------
    Charge (ESU x 10^10)
                -0.0000
    Dipole Moment (Debye)
         X       0.8615      Y       3.0442      Z       2.3243
       Tot       3.9258
    Quadrupole Moments (Debye-Ang)
        XX    -182.0367     XY       8.8608     YY    -176.7216
        XZ       0.3358     YZ      -7.8797     ZZ    -205.7781

 Total job time:  359.63s(wall), 11049.01s(cpu)
        *  Thank you very much for using Q-Chem.  Have a nice day.  *
