 Q-Chem 5.4, Q-Chem, Inc., Pleasanton, CA (2021)
 Q-Chem 5.4.0 for Intel X86 EM64T Linux

User input:
--------------------------------------------------------------
$molecule
0 1
C	0.236226	-8.517702	-0.217225
C	-0.448921	-7.641575	0.611939
S	1.218777	-7.638634	-1.413715
C	-0.206907	-6.264785	0.323572
H	-1.118185	-7.966081	1.418739
C	0.711285	-6.072714	-0.768156
C	1.053725	-4.787049	-1.215016
C	-0.804258	-5.162801	0.999917
C	-0.464908	-3.874817	0.550033
C	0.456457	-3.683952	-0.541024
O	-1.630752	-5.499772	2.028811
O	1.883064	-4.459055	-2.249357
C	2.956754	-5.329063	-2.586579
H	3.619069	-4.755694	-3.262802
H	2.609423	-6.238095	-3.124711
H	3.531667	-5.637262	-1.686639
C	-2.599073	-4.572261	2.503251
H	-3.260097	-5.139743	3.185356
H	-3.207034	-4.153131	1.672937
H	-2.135214	-3.739531	3.075213
C	0.694410	-2.306654	-0.828107
S	-0.983256	-2.306501	1.188794
C	-0.000000	-1.435185	-0.000000
H	1.364851	-1.978138	-1.632185
C	0.000000	0.000000	0.000000
S	0.079327	0.901280	1.507541
C	0.215617	2.467903	0.718873
C	0.079577	0.900940	-1.067872
C	0.198433	2.285998	-0.686410
S	0.061187	0.658044	-2.805516
C	0.208347	2.403534	-3.054530
C	0.267636	3.109360	-1.862551
F	0.379347	4.441341	-1.819088
C	0.249278	2.849688	-4.456084
O	0.190132	2.082076	-5.406510
O	0.359548	4.195721	-4.569225
C	0.407901	4.688467	-5.916207
H	0.496901	5.785916	-5.833064
H	-0.512596	4.414348	-6.470168
H	1.278377	4.268124	-6.459293
H	0.294764	3.388767	1.306486
H	-0.456457	-9.143623	-0.792084
H	0.927480	-9.149441	0.352973
H	-0.832067	-1.443175	-0.688477
$end

$rem
JOBTYPE		SP
EXCHANGE	HF
CORRELATION	pRIMP2
BASIS		cc-pvtz
METHOD		rimp2
AUX_BASIS	rimp2-cc-pvtz
SOLVENT_METHOD	PCM
PURECART	11111
SYMMETRY	false
MEM_TOTAL	110000
SCF_CONVERGENCE = 6
THRESH=10
GUI = 2
$end

$solvent
dielectric 4.90
$end
--------------------------------------------------------------

             Standard Nuclear Orientation (Angstroms)
    I     Atom           X                Y                Z
 ----------------------------------------------------------------
    1      C       0.2362260000    -8.5177020000    -0.2172250000
    2      C      -0.4489210000    -7.6415750000     0.6119390000
    3      S       1.2187770000    -7.6386340000    -1.4137150000
    4      C      -0.2069070000    -6.2647850000     0.3235720000
    5      H      -1.1181850000    -7.9660810000     1.4187390000
    6      C       0.7112850000    -6.0727140000    -0.7681560000
    7      C       1.0537250000    -4.7870490000    -1.2150160000
    8      C      -0.8042580000    -5.1628010000     0.9999170000
    9      C      -0.4649080000    -3.8748170000     0.5500330000
   10      C       0.4564570000    -3.6839520000    -0.5410240000
   11      O      -1.6307520000    -5.4997720000     2.0288110000
   12      O       1.8830640000    -4.4590550000    -2.2493570000
   13      C       2.9567540000    -5.3290630000    -2.5865790000
   14      H       3.6190690000    -4.7556940000    -3.2628020000
   15      H       2.6094230000    -6.2380950000    -3.1247110000
   16      H       3.5316670000    -5.6372620000    -1.6866390000
   17      C      -2.5990730000    -4.5722610000     2.5032510000
   18      H      -3.2600970000    -5.1397430000     3.1853560000
   19      H      -3.2070340000    -4.1531310000     1.6729370000
   20      H      -2.1352140000    -3.7395310000     3.0752130000
   21      C       0.6944100000    -2.3066540000    -0.8281070000
   22      S      -0.9832560000    -2.3065010000     1.1887940000
   23      C       0.0000000000    -1.4351850000     0.0000000000
   24      H       1.3648510000    -1.9781380000    -1.6321850000
   25      C       0.0000000000     0.0000000000     0.0000000000
   26      S       0.0793270000     0.9012800000     1.5075410000
   27      C       0.2156170000     2.4679030000     0.7188730000
   28      C       0.0795770000     0.9009400000    -1.0678720000
   29      C       0.1984330000     2.2859980000    -0.6864100000
   30      S       0.0611870000     0.6580440000    -2.8055160000
   31      C       0.2083470000     2.4035340000    -3.0545300000
   32      C       0.2676360000     3.1093600000    -1.8625510000
   33      F       0.3793470000     4.4413410000    -1.8190880000
   34      C       0.2492780000     2.8496880000    -4.4560840000
   35      O       0.1901320000     2.0820760000    -5.4065100000
   36      O       0.3595480000     4.1957210000    -4.5692250000
   37      C       0.4079010000     4.6884670000    -5.9162070000
   38      H       0.4969010000     5.7859160000    -5.8330640000
   39      H      -0.5125960000     4.4143480000    -6.4701680000
   40      H       1.2783770000     4.2681240000    -6.4592930000
   41      H       0.2947640000     3.3887670000     1.3064860000
   42      H      -0.4564570000    -9.1436230000    -0.7920840000
   43      H       0.9274800000    -9.1494410000     0.3529730000
   44      H      -0.8320670000    -1.4431750000    -0.6884770000
 ----------------------------------------------------------------

   11   -2755.3453232522      7.78e-07  Convergence criterion met
 Total energy in the final basis set =    -2755.3453232522
        RIMP2         total energy =     -2760.4349260360 a.u.

                    Orbital Energies (a.u.)
 --------------------------------------------------------------

 Alpha MOs
 -- Occupied --
-92.0139 -91.9983 -91.9813 -91.9587 -26.3436 -20.6152 -20.5883 -20.5873
-20.5617 -11.4098 -11.3827 -11.3096 -11.3094 -11.3083 -11.3039 -11.2986
-11.2966 -11.2891 -11.2854 -11.2852 -11.2846 -11.2830 -11.2827 -11.2737
-11.2732 -11.2594 -11.2590 -11.2503 -11.2384  -9.0126  -8.9984  -8.9834
 -8.9613  -6.6933  -6.6928  -6.6922  -6.6795  -6.6788  -6.6776  -6.6645
 -6.6637  -6.6624  -6.6426  -6.6416  -6.6406  -1.6606  -1.4677  -1.4116
 -1.4092  -1.3704  -1.2298  -1.2032  -1.1745  -1.1371  -1.1014  -1.0473
 -1.0457  -1.0232  -1.0043  -0.9985  -0.9624  -0.9596  -0.9491  -0.9411
 -0.8948  -0.8712  -0.8647  -0.8098  -0.8001  -0.7900  -0.7848  -0.7685
 -0.7579  -0.7368  -0.7254  -0.7093  -0.7001  -0.6955  -0.6851  -0.6809
 -0.6742  -0.6647  -0.6565  -0.6490  -0.6374  -0.6309  -0.6206  -0.6153
 -0.6124  -0.5986  -0.5931  -0.5773  -0.5716  -0.5655  -0.5594  -0.5529
 -0.5474  -0.5346  -0.5314  -0.5273  -0.5132  -0.5088  -0.5082  -0.5025
 -0.4854  -0.4821  -0.4764  -0.4742  -0.4695  -0.4676  -0.4626  -0.4476
 -0.4299  -0.3964  -0.3863  -0.3709  -0.3505  -0.2996  -0.2895  -0.2195

          Ground-State Mulliken Net Atomic Charges

     Atom                 Charge (a.u.)
  ----------------------------------------
      1 C                    -0.070431
      2 C                    -0.256087
      3 S                    -0.133937
      4 C                    -0.047192
      5 H                     0.193846
      6 C                    -0.052514
      7 C                     0.222245
      8 C                     0.231318
      9 C                    -0.078721
     10 C                    -0.037598
     11 O                    -0.334474
     12 O                    -0.342726
     13 C                    -0.082963
     14 H                     0.120681
     15 H                     0.092206
     16 H                     0.092677
     17 C                    -0.087279
     18 H                     0.124081
     19 H                     0.093168
     20 H                     0.090140
     21 C                    -0.299677
     22 S                    -0.083592
     23 C                     0.103408
     24 H                     0.209125
     25 C                    -0.056510
     26 S                     0.087631
     27 C                    -0.203202
     28 C                    -0.001186
     29 C                    -0.109975
     30 S                    -0.001180
     31 C                    -0.155268
     32 C                     0.397432
     33 F                    -0.206756
     34 C                     0.444948
     35 O                    -0.460565
     36 O                    -0.300506
     37 C                    -0.058661
     38 H                     0.121540
     39 H                     0.095254
     40 H                     0.095138
     41 H                     0.216677
     42 H                     0.117915
     43 H                     0.115563
     44 H                     0.196006
  ----------------------------------------
  Sum of atomic charges =     0.000000

                    Cartesian Multipole Moments
 -----------------------------------------------------------------
    Charge (ESU x 10^10)
                 0.0000
    Dipole Moment (Debye)
         X      -0.3784      Y       2.1534      Z       2.7563
       Tot       3.5182
    Quadrupole Moments (Debye-Ang)
        XX    -188.0533     XY       4.0184     YY    -172.5508
        XZ      -8.9836     YZ     -10.8760     ZZ    -201.5262

 Total job time:  327.70s(wall), 10327.38s(cpu)
        *  Thank you very much for using Q-Chem.  Have a nice day.  *
