 Q-Chem 5.4, Q-Chem, Inc., Pleasanton, CA (2021)
 Q-Chem 5.4.0 for Intel X86 EM64T Linux

User input:
--------------------------------------------------------------
$molecule
0 1
C	0.284919	-8.517702	0.147685
C	-0.728574	-7.641575	-0.212552
S	1.745304	-7.638634	0.661757
C	-0.374824	-6.264785	-0.083761
H	-1.715621	-7.966081	-0.565513
C	0.965104	-6.072714	0.405665
C	1.502136	-4.787049	0.574617
C	-1.214687	-5.162801	-0.413763
C	-0.675870	-3.874817	-0.248748
C	0.664513	-3.683952	0.243888
O	-2.464209	-5.499772	-0.838511
O	2.757750	-4.459055	1.000176
C	3.441858	-5.329063	1.893778
H	4.303826	-4.755694	2.284868
H	3.828743	-6.238095	1.383341
H	2.792824	-5.637262	2.741817
C	-3.241222	-4.572261	-1.586168
H	-4.108274	-5.139743	-1.974033
H	-2.668916	-4.153131	-2.441448
H	-3.620041	-3.739531	-0.954660
C	1.015668	-2.306654	0.369302
S	-1.453394	-2.306501	-0.517367
C	-0.000000	-1.435185	-0.000000
H	2.000559	-1.978138	0.724300
C	0.000000	0.000000	0.000000
S	0.157577	0.890937	1.507541
C	0.429889	2.439720	0.718873
C	0.157797	0.890576	-1.067872
C	0.396915	2.260004	-0.686410
S	0.118307	0.650207	-2.805516
C	0.417036	2.376229	-3.054530
C	0.537616	3.074202	-1.862551
F	0.764992	4.391378	-1.819088
C	0.496696	2.817118	-4.456084
O	0.370874	2.057582	-5.406510
O	0.723861	4.148418	-4.569225
C	0.814976	4.635075	-5.916207
H	0.999286	5.720591	-5.833064
H	-0.125909	4.442226	-6.470168
H	1.645504	4.140465	-6.459293
H	0.588993	3.350182	1.306486
H	0.588198	-9.143623	-0.699838
H	-0.014470	-9.149441	0.992270
H	0.362373	-1.443175	-1.017360
$end

$rem
JOBTYPE		SP
EXCHANGE	HF
CORRELATION	pRIMP2
BASIS		cc-pvtz
METHOD		rimp2
AUX_BASIS	rimp2-cc-pvtz
SOLVENT_METHOD	PCM
PURECART	11111
SYMMETRY	false
MEM_TOTAL	110000
SCF_CONVERGENCE = 6
THRESH=10
GUI = 2
$end

$solvent
dielectric 4.90
$end
--------------------------------------------------------------

             Standard Nuclear Orientation (Angstroms)
    I     Atom           X                Y                Z
 ----------------------------------------------------------------
    1      C       0.2849190000    -8.5177020000     0.1476850000
    2      C      -0.7285740000    -7.6415750000    -0.2125520000
    3      S       1.7453040000    -7.6386340000     0.6617570000
    4      C      -0.3748240000    -6.2647850000    -0.0837610000
    5      H      -1.7156210000    -7.9660810000    -0.5655130000
    6      C       0.9651040000    -6.0727140000     0.4056650000
    7      C       1.5021360000    -4.7870490000     0.5746170000
    8      C      -1.2146870000    -5.1628010000    -0.4137630000
    9      C      -0.6758700000    -3.8748170000    -0.2487480000
   10      C       0.6645130000    -3.6839520000     0.2438880000
   11      O      -2.4642090000    -5.4997720000    -0.8385110000
   12      O       2.7577500000    -4.4590550000     1.0001760000
   13      C       3.4418580000    -5.3290630000     1.8937780000
   14      H       4.3038260000    -4.7556940000     2.2848680000
   15      H       3.8287430000    -6.2380950000     1.3833410000
   16      H       2.7928240000    -5.6372620000     2.7418170000
   17      C      -3.2412220000    -4.5722610000    -1.5861680000
   18      H      -4.1082740000    -5.1397430000    -1.9740330000
   19      H      -2.6689160000    -4.1531310000    -2.4414480000
   20      H      -3.6200410000    -3.7395310000    -0.9546600000
   21      C       1.0156680000    -2.3066540000     0.3693020000
   22      S      -1.4533940000    -2.3065010000    -0.5173670000
   23      C       0.0000000000    -1.4351850000     0.0000000000
   24      H       2.0005590000    -1.9781380000     0.7243000000
   25      C       0.0000000000     0.0000000000     0.0000000000
   26      S       0.1575770000     0.8909370000     1.5075410000
   27      C       0.4298890000     2.4397200000     0.7188730000
   28      C       0.1577970000     0.8905760000    -1.0678720000
   29      C       0.3969150000     2.2600040000    -0.6864100000
   30      S       0.1183070000     0.6502070000    -2.8055160000
   31      C       0.4170360000     2.3762290000    -3.0545300000
   32      C       0.5376160000     3.0742020000    -1.8625510000
   33      F       0.7649920000     4.3913780000    -1.8190880000
   34      C       0.4966960000     2.8171180000    -4.4560840000
   35      O       0.3708740000     2.0575820000    -5.4065100000
   36      O       0.7238610000     4.1484180000    -4.5692250000
   37      C       0.8149760000     4.6350750000    -5.9162070000
   38      H       0.9992860000     5.7205910000    -5.8330640000
   39      H      -0.1259090000     4.4422260000    -6.4701680000
   40      H       1.6455040000     4.1404650000    -6.4592930000
   41      H       0.5889930000     3.3501820000     1.3064860000
   42      H       0.5881980000    -9.1436230000    -0.6998380000
   43      H      -0.0144700000    -9.1494410000     0.9922700000
   44      H       0.3623730000    -1.4431750000    -1.0173600000
 ----------------------------------------------------------------

   11   -2755.3463375388      6.97e-07  Convergence criterion met
 Total energy in the final basis set =    -2755.3463375388
        RIMP2         total energy =     -2760.4349382341 a.u.

                    Orbital Energies (a.u.)
 --------------------------------------------------------------

 Alpha MOs
 -- Occupied --
-92.0124 -92.0002 -91.9758 -91.9584 -26.3444 -20.6153 -20.5873 -20.5866
-20.5618 -11.4100 -11.3840 -11.3107 -11.3090 -11.3069 -11.3032 -11.3017
-11.2986 -11.2892 -11.2853 -11.2839 -11.2830 -11.2825 -11.2801 -11.2734
-11.2720 -11.2583 -11.2582 -11.2499 -11.2372  -9.0112  -9.0004  -8.9781
 -8.9610  -6.6920  -6.6914  -6.6909  -6.6814  -6.6807  -6.6795  -6.6593
 -6.6584  -6.6571  -6.6423  -6.6413  -6.6403  -1.6614  -1.4678  -1.4101
 -1.4089  -1.3705  -1.2298  -1.2023  -1.1735  -1.1371  -1.1008  -1.0469
 -1.0453  -1.0237  -1.0034  -0.9970  -0.9632  -0.9580  -0.9485  -0.9415
 -0.8930  -0.8711  -0.8648  -0.8148  -0.7942  -0.7900  -0.7847  -0.7683
 -0.7588  -0.7353  -0.7262  -0.7100  -0.7009  -0.6946  -0.6853  -0.6799
 -0.6744  -0.6651  -0.6554  -0.6485  -0.6346  -0.6306  -0.6202  -0.6150
 -0.6109  -0.5993  -0.5927  -0.5773  -0.5705  -0.5645  -0.5579  -0.5553
 -0.5506  -0.5317  -0.5291  -0.5250  -0.5131  -0.5090  -0.5072  -0.5014
 -0.4858  -0.4806  -0.4765  -0.4744  -0.4723  -0.4672  -0.4602  -0.4459
 -0.4245  -0.3990  -0.3851  -0.3700  -0.3504  -0.3018  -0.2893  -0.2206

          Ground-State Mulliken Net Atomic Charges

     Atom                 Charge (a.u.)
  ----------------------------------------
      1 C                    -0.070358
      2 C                    -0.258453
      3 S                    -0.134703
      4 C                    -0.045355
      5 H                     0.193602
      6 C                    -0.051282
      7 C                     0.222564
      8 C                     0.229844
      9 C                    -0.082959
     10 C                    -0.058086
     11 O                    -0.335495
     12 O                    -0.343570
     13 C                    -0.082639
     14 H                     0.119938
     15 H                     0.092054
     16 H                     0.092688
     17 C                    -0.086634
     18 H                     0.122808
     19 H                     0.093026
     20 H                     0.090128
     21 C                    -0.236459
     22 S                    -0.070604
     23 C                     0.048213
     24 H                     0.208026
     25 C                    -0.072763
     26 S                     0.088519
     27 C                    -0.182433
     28 C                     0.007962
     29 C                    -0.109233
     30 S                     0.003120
     31 C                    -0.157698
     32 C                     0.397940
     33 F                    -0.205718
     34 C                     0.444297
     35 O                    -0.461078
     36 O                    -0.300787
     37 C                    -0.058598
     38 H                     0.121497
     39 H                     0.095246
     40 H                     0.095190
     41 H                     0.217267
     42 H                     0.117619
     43 H                     0.115094
     44 H                     0.188261
  ----------------------------------------
  Sum of atomic charges =     0.000000

                    Cartesian Multipole Moments
 -----------------------------------------------------------------
    Charge (ESU x 10^10)
                -0.0000
    Dipole Moment (Debye)
         X       0.5666      Y       2.8289      Z       2.3736
       Tot       3.7360
    Quadrupole Moments (Debye-Ang)
        XX    -190.3054     XY       6.2099     YY    -174.4128
        XZ       7.8119     YZ      -6.3715     ZZ    -199.0241

 Total job time:  365.53s(wall), 11238.94s(cpu)
        *  Thank you very much for using Q-Chem.  Have a nice day.  *
