 Q-Chem 5.4, Q-Chem, Inc., Pleasanton, CA (2021)
 Q-Chem 5.4.0 for Intel X86 EM64T Linux

User input:
--------------------------------------------------------------
$molecule
0 1
C	-0.318247	-8.517702	-0.041330
C	0.757333	-7.641575	-0.049453
S	-1.866383	-7.638634	-0.024919
C	0.380867	-6.264785	-0.049488
H	1.805573	-7.966081	-0.055368
C	-1.045647	-6.072714	-0.051115
C	-1.608077	-4.787049	-0.026203
C	1.282948	-5.162801	-0.026637
C	0.720187	-3.874817	0.002586
C	-0.707853	-3.683952	-0.001903
O	2.602386	-5.499772	-0.054867
O	-2.933517	-4.459055	0.003348
C	-3.881999	-5.329063	-0.602384
H	-4.825744	-4.755694	-0.675079
H	-4.070972	-6.238095	0.009592
H	-3.562152	-5.637262	-1.621263
C	3.588253	-4.572261	0.381947
H	4.535674	-5.139743	0.449872
H	3.342986	-4.153131	1.381388
H	3.728239	-3.739531	-0.341040
C	-1.080725	-2.306654	0.000348
S	1.542694	-2.306501	-0.010924
C	0.000000	-1.435185	0.000000
H	-2.127635	-1.978138	0.003612
C	0.000000	0.000000	0.000000
S	0.000474	0.904764	1.507541
C	-0.000295	2.477305	0.718873
C	0.000752	0.904447	-1.067872
C	-0.001560	2.294593	-0.686410
S	0.003602	0.660872	-2.805516
C	-0.001928	2.412546	-3.054530
C	-0.004381	3.120854	-1.862551
F	-0.009185	4.457503	-1.819088
C	-0.000038	2.860570	-4.456084
O	0.007944	2.090724	-5.406510
O	-0.007501	4.211092	-4.569225
C	-0.002278	4.706177	-5.916207
H	-0.009265	5.807207	-5.833064
H	-0.895381	4.352875	-6.470168
H	0.901521	4.363301	-6.459293
H	-0.001708	3.401562	1.306486
H	-0.313367	-9.143623	0.858809
H	-0.325780	-9.149441	-0.937378
H	0.007439	-1.443175	1.079945
$end

$rem
JOBTYPE		SP
EXCHANGE	HF
CORRELATION	pRIMP2
BASIS		cc-pvtz
METHOD		rimp2
AUX_BASIS	rimp2-cc-pvtz
SOLVENT_METHOD	PCM
PURECART	11111
SYMMETRY	false
MEM_TOTAL	110000
SCF_CONVERGENCE = 6
THRESH=10
GUI = 2
$end

$solvent
dielectric 4.90
$end
--------------------------------------------------------------

             Standard Nuclear Orientation (Angstroms)
    I     Atom           X                Y                Z
 ----------------------------------------------------------------
    1      C      -0.3182470000    -8.5177020000    -0.0413300000
    2      C       0.7573330000    -7.6415750000    -0.0494530000
    3      S      -1.8663830000    -7.6386340000    -0.0249190000
    4      C       0.3808670000    -6.2647850000    -0.0494880000
    5      H       1.8055730000    -7.9660810000    -0.0553680000
    6      C      -1.0456470000    -6.0727140000    -0.0511150000
    7      C      -1.6080770000    -4.7870490000    -0.0262030000
    8      C       1.2829480000    -5.1628010000    -0.0266370000
    9      C       0.7201870000    -3.8748170000     0.0025860000
   10      C      -0.7078530000    -3.6839520000    -0.0019030000
   11      O       2.6023860000    -5.4997720000    -0.0548670000
   12      O      -2.9335170000    -4.4590550000     0.0033480000
   13      C      -3.8819990000    -5.3290630000    -0.6023840000
   14      H      -4.8257440000    -4.7556940000    -0.6750790000
   15      H      -4.0709720000    -6.2380950000     0.0095920000
   16      H      -3.5621520000    -5.6372620000    -1.6212630000
   17      C       3.5882530000    -4.5722610000     0.3819470000
   18      H       4.5356740000    -5.1397430000     0.4498720000
   19      H       3.3429860000    -4.1531310000     1.3813880000
   20      H       3.7282390000    -3.7395310000    -0.3410400000
   21      C      -1.0807250000    -2.3066540000     0.0003480000
   22      S       1.5426940000    -2.3065010000    -0.0109240000
   23      C       0.0000000000    -1.4351850000     0.0000000000
   24      H      -2.1276350000    -1.9781380000     0.0036120000
   25      C       0.0000000000     0.0000000000     0.0000000000
   26      S       0.0004740000     0.9047640000     1.5075410000
   27      C      -0.0002950000     2.4773050000     0.7188730000
   28      C       0.0007520000     0.9044470000    -1.0678720000
   29      C      -0.0015600000     2.2945930000    -0.6864100000
   30      S       0.0036020000     0.6608720000    -2.8055160000
   31      C      -0.0019280000     2.4125460000    -3.0545300000
   32      C      -0.0043810000     3.1208540000    -1.8625510000
   33      F      -0.0091850000     4.4575030000    -1.8190880000
   34      C      -0.0000380000     2.8605700000    -4.4560840000
   35      O       0.0079440000     2.0907240000    -5.4065100000
   36      O      -0.0075010000     4.2110920000    -4.5692250000
   37      C      -0.0022780000     4.7061770000    -5.9162070000
   38      H      -0.0092650000     5.8072070000    -5.8330640000
   39      H      -0.8953810000     4.3528750000    -6.4701680000
   40      H       0.9015210000     4.3633010000    -6.4592930000
   41      H      -0.0017080000     3.4015620000     1.3064860000
   42      H      -0.3133670000    -9.1436230000     0.8588090000
   43      H      -0.3257800000    -9.1494410000    -0.9373780000
   44      H       0.0074390000    -1.4431750000     1.0799450000
 ----------------------------------------------------------------

   11   -2755.3453791535      7.43e-07  Convergence criterion met
 Total energy in the final basis set =    -2755.3453791535
        RIMP2         total energy =     -2760.4319577620 a.u.

                    Orbital Energies (a.u.)
 --------------------------------------------------------------

 Alpha MOs
 -- Occupied --
-92.0180 -91.9981 -91.9763 -91.9577 -26.3435 -20.6150 -20.5869 -20.5862
-20.5615 -11.4095 -11.3825 -11.3116 -11.3087 -11.3062 -11.2998 -11.2985
-11.2980 -11.2889 -11.2851 -11.2840 -11.2826 -11.2823 -11.2790 -11.2722
-11.2720 -11.2577 -11.2567 -11.2492 -11.2357  -9.0166  -8.9982  -8.9785
 -8.9603  -6.6973  -6.6967  -6.6962  -6.6792  -6.6785  -6.6774  -6.6596
 -6.6587  -6.6574  -6.6415  -6.6406  -6.6396  -1.6606  -1.4674  -1.4098
 -1.4086  -1.3701  -1.2282  -1.2023  -1.1731  -1.1376  -1.0993  -1.0455
 -1.0440  -1.0247  -1.0032  -0.9964  -0.9628  -0.9584  -0.9479  -0.9405
 -0.8927  -0.8686  -0.8664  -0.8140  -0.7981  -0.7889  -0.7843  -0.7674
 -0.7567  -0.7375  -0.7255  -0.7170  -0.6970  -0.6861  -0.6846  -0.6793
 -0.6740  -0.6603  -0.6557  -0.6482  -0.6335  -0.6298  -0.6195  -0.6148
 -0.6109  -0.5991  -0.5914  -0.5768  -0.5713  -0.5640  -0.5585  -0.5544
 -0.5494  -0.5317  -0.5309  -0.5245  -0.5126  -0.5075  -0.5069  -0.5012
 -0.4855  -0.4817  -0.4766  -0.4739  -0.4709  -0.4674  -0.4607  -0.4460
 -0.4223  -0.4000  -0.3846  -0.3697  -0.3508  -0.3016  -0.2889  -0.2206

          Ground-State Mulliken Net Atomic Charges

     Atom                 Charge (a.u.)
  ----------------------------------------
      1 C                    -0.069988
      2 C                    -0.262393
      3 S                    -0.136565
      4 C                    -0.043345
      5 H                     0.193120
      6 C                    -0.053254
      7 C                     0.227959
      8 C                     0.224310
      9 C                    -0.079969
     10 C                    -0.064624
     11 O                    -0.335082
     12 O                    -0.343385
     13 C                    -0.082525
     14 H                     0.119917
     15 H                     0.091678
     16 H                     0.093153
     17 C                    -0.086097
     18 H                     0.122806
     19 H                     0.091388
     20 H                     0.090741
     21 C                    -0.235758
     22 S                    -0.073182
     23 C                     0.075276
     24 H                     0.204969
     25 C                    -0.115648
     26 S                     0.093715
     27 C                    -0.188857
     28 C                     0.043597
     29 C                    -0.116975
     30 S                     0.009416
     31 C                    -0.158614
     32 C                     0.402113
     33 F                    -0.207223
     34 C                     0.444142
     35 O                    -0.460590
     36 O                    -0.300557
     37 C                    -0.058639
     38 H                     0.121355
     39 H                     0.095156
     40 H                     0.095204
     41 H                     0.219296
     42 H                     0.116714
     43 H                     0.114654
     44 H                     0.182588
  ----------------------------------------
  Sum of atomic charges =     0.000000

                    Cartesian Multipole Moments
 -----------------------------------------------------------------
    Charge (ESU x 10^10)
                -0.0000
    Dipole Moment (Debye)
         X       0.0821      Y       3.2465      Z       3.5086
       Tot       4.7808
    Quadrupole Moments (Debye-Ang)
        XX    -185.5191     XY      -3.6358     YY    -176.4067
        XZ       5.7440     YZ      -7.3354     ZZ    -204.1780

 Total job time:  358.33s(wall), 10786.32s(cpu)
        *  Thank you very much for using Q-Chem.  Have a nice day.  *
