 Q-Chem 5.4, Q-Chem, Inc., Pleasanton, CA (2021)
 Q-Chem 5.4.0 for Intel X86 EM64T Linux

User input:
--------------------------------------------------------------
$molecule
0 1
C	-0.172904	-8.517702	-0.270358
C	0.524688	-7.641575	0.548363
S	-1.180599	-7.638634	-1.445750
C	0.282727	-6.264785	0.259951
H	1.203014	-7.966081	1.347559
C	-0.632972	-6.072714	-0.833868
C	-1.013580	-4.787049	-1.248701
C	0.845068	-5.162801	0.965673
C	0.460946	-3.874817	0.553357
C	-0.453541	-3.683952	-0.543470
O	1.714812	-5.499772	1.958276
O	-1.888193	-4.459055	-2.245053
C	-2.033848	-5.329063	-3.360989
H	-2.584788	-4.755694	-4.130667
H	-2.624118	-6.238095	-3.112380
H	-1.047748	-5.637262	-3.770895
C	2.013896	-4.572261	2.994272
H	2.570853	-5.139743	3.763700
H	1.090625	-4.153131	3.448815
H	2.657717	-3.739531	2.636780
C	-0.694943	-2.306654	-0.827659
S	0.999993	-2.306501	1.174750
C	-0.000000	-1.435185	-0.000000
H	-1.370385	-1.978138	-1.627541
C	0.000000	0.000000	0.000000
S	0.157577	0.890937	1.507541
C	0.429889	2.439720	0.718873
C	0.157797	0.890576	-1.067872
C	0.396915	2.260004	-0.686410
S	0.118307	0.650207	-2.805516
C	0.417036	2.376229	-3.054530
C	0.537616	3.074202	-1.862551
F	0.764992	4.391378	-1.819088
C	0.496696	2.817118	-4.456084
O	0.370874	2.057582	-5.406510
O	0.723861	4.148418	-4.569225
C	0.814976	4.635075	-5.916207
H	0.999286	5.720591	-5.833064
H	-0.125909	4.442226	-6.470168
H	1.645504	4.140465	-6.459293
H	0.588993	3.350182	1.306486
H	-0.859314	-9.143623	0.311979
H	0.508666	-9.149441	-0.852097
H	-0.822504	-1.443175	0.699874
$end

$rem
JOBTYPE		SP
EXCHANGE	HF
CORRELATION	pRIMP2
BASIS		cc-pvtz
METHOD		rimp2
AUX_BASIS	rimp2-cc-pvtz
SOLVENT_METHOD	PCM
PURECART	11111
SYMMETRY	false
MEM_TOTAL	110000
SCF_CONVERGENCE = 6
THRESH=10
GUI = 2
$end

$solvent
dielectric 4.90
$end
--------------------------------------------------------------

             Standard Nuclear Orientation (Angstroms)
    I     Atom           X                Y                Z
 ----------------------------------------------------------------
    1      C      -0.1729040000    -8.5177020000    -0.2703580000
    2      C       0.5246880000    -7.6415750000     0.5483630000
    3      S      -1.1805990000    -7.6386340000    -1.4457500000
    4      C       0.2827270000    -6.2647850000     0.2599510000
    5      H       1.2030140000    -7.9660810000     1.3475590000
    6      C      -0.6329720000    -6.0727140000    -0.8338680000
    7      C      -1.0135800000    -4.7870490000    -1.2487010000
    8      C       0.8450680000    -5.1628010000     0.9656730000
    9      C       0.4609460000    -3.8748170000     0.5533570000
   10      C      -0.4535410000    -3.6839520000    -0.5434700000
   11      O       1.7148120000    -5.4997720000     1.9582760000
   12      O      -1.8881930000    -4.4590550000    -2.2450530000
   13      C      -2.0338480000    -5.3290630000    -3.3609890000
   14      H      -2.5847880000    -4.7556940000    -4.1306670000
   15      H      -2.6241180000    -6.2380950000    -3.1123800000
   16      H      -1.0477480000    -5.6372620000    -3.7708950000
   17      C       2.0138960000    -4.5722610000     2.9942720000
   18      H       2.5708530000    -5.1397430000     3.7637000000
   19      H       1.0906250000    -4.1531310000     3.4488150000
   20      H       2.6577170000    -3.7395310000     2.6367800000
   21      C      -0.6949430000    -2.3066540000    -0.8276590000
   22      S       0.9999930000    -2.3065010000     1.1747500000
   23      C       0.0000000000    -1.4351850000     0.0000000000
   24      H      -1.3703850000    -1.9781380000    -1.6275410000
   25      C       0.0000000000     0.0000000000     0.0000000000
   26      S       0.1575770000     0.8909370000     1.5075410000
   27      C       0.4298890000     2.4397200000     0.7188730000
   28      C       0.1577970000     0.8905760000    -1.0678720000
   29      C       0.3969150000     2.2600040000    -0.6864100000
   30      S       0.1183070000     0.6502070000    -2.8055160000
   31      C       0.4170360000     2.3762290000    -3.0545300000
   32      C       0.5376160000     3.0742020000    -1.8625510000
   33      F       0.7649920000     4.3913780000    -1.8190880000
   34      C       0.4966960000     2.8171180000    -4.4560840000
   35      O       0.3708740000     2.0575820000    -5.4065100000
   36      O       0.7238610000     4.1484180000    -4.5692250000
   37      C       0.8149760000     4.6350750000    -5.9162070000
   38      H       0.9992860000     5.7205910000    -5.8330640000
   39      H      -0.1259090000     4.4422260000    -6.4701680000
   40      H       1.6455040000     4.1404650000    -6.4592930000
   41      H       0.5889930000     3.3501820000     1.3064860000
   42      H      -0.8593140000    -9.1436230000     0.3119790000
   43      H       0.5086660000    -9.1494410000    -0.8520970000
   44      H      -0.8225040000    -1.4431750000     0.6998740000
 ----------------------------------------------------------------

   11   -2755.3423970385      8.43e-07  Convergence criterion met
 Total energy in the final basis set =    -2755.3423970385
        RIMP2         total energy =     -2760.4310733281 a.u.

                    Orbital Energies (a.u.)
 --------------------------------------------------------------

 Alpha MOs
 -- Occupied --
-92.0158 -91.9969 -91.9799 -91.9583 -26.3431 -20.6150 -20.5877 -20.5871
-20.5616 -11.4096 -11.3821 -11.3093 -11.3083 -11.3074 -11.3051 -11.2982
-11.2957 -11.2889 -11.2852 -11.2849 -11.2841 -11.2824 -11.2812 -11.2735
-11.2732 -11.2587 -11.2585 -11.2498 -11.2373  -9.0146  -8.9971  -8.9822
 -8.9609  -6.6954  -6.6948  -6.6942  -6.6781  -6.6774  -6.6763  -6.6633
 -6.6624  -6.6611  -6.6422  -6.6412  -6.6402  -1.6602  -1.4675  -1.4110
 -1.4089  -1.3702  -1.2292  -1.2031  -1.1741  -1.1377  -1.1003  -1.0467
 -1.0446  -1.0240  -1.0042  -0.9979  -0.9628  -0.9593  -0.9487  -0.9405
 -0.8943  -0.8690  -0.8664  -0.8112  -0.8010  -0.7889  -0.7848  -0.7679
 -0.7566  -0.7379  -0.7251  -0.7156  -0.6983  -0.6870  -0.6848  -0.6802
 -0.6740  -0.6616  -0.6566  -0.6487  -0.6364  -0.6312  -0.6202  -0.6150
 -0.6121  -0.5989  -0.5925  -0.5761  -0.5717  -0.5649  -0.5589  -0.5517
 -0.5497  -0.5340  -0.5312  -0.5288  -0.5139  -0.5080  -0.5076  -0.5015
 -0.4853  -0.4803  -0.4774  -0.4744  -0.4728  -0.4684  -0.4603  -0.4464
 -0.4294  -0.3965  -0.3860  -0.3705  -0.3514  -0.2993  -0.2888  -0.2188

          Ground-State Mulliken Net Atomic Charges

     Atom                 Charge (a.u.)
  ----------------------------------------
      1 C                    -0.070188
      2 C                    -0.259484
      3 S                    -0.134694
      4 C                    -0.044625
      5 H                     0.193507
      6 C                    -0.051768
      7 C                     0.224696
      8 C                     0.224707
      9 C                    -0.075888
     10 C                    -0.053769
     11 O                    -0.334328
     12 O                    -0.343577
     13 C                    -0.082849
     14 H                     0.120688
     15 H                     0.092003
     16 H                     0.093108
     17 C                    -0.087597
     18 H                     0.123712
     19 H                     0.092172
     20 H                     0.090274
     21 C                    -0.269975
     22 S                    -0.080413
     23 C                     0.102672
     24 H                     0.209895
     25 C                    -0.114766
     26 S                     0.075222
     27 C                    -0.186547
     28 C                     0.051630
     29 C                    -0.124510
     30 S                    -0.000263
     31 C                    -0.155884
     32 C                     0.400401
     33 F                    -0.207303
     34 C                     0.444371
     35 O                    -0.460355
     36 O                    -0.300537
     37 C                    -0.058637
     38 H                     0.121435
     39 H                     0.095108
     40 H                     0.095233
     41 H                     0.218377
     42 H                     0.117395
     43 H                     0.115177
     44 H                     0.196175
  ----------------------------------------
  Sum of atomic charges =     0.000000

                    Cartesian Multipole Moments
 -----------------------------------------------------------------
    Charge (ESU x 10^10)
                 0.0000
    Dipole Moment (Debye)
         X       0.0660      Y       2.5097      Z       3.5242
       Tot       4.3270
    Quadrupole Moments (Debye-Ang)
        XX    -199.0345     XY       0.2525     YY    -174.3254
        XZ       5.0187     YZ     -10.4227     ZZ    -190.1921

 Total job time:  362.32s(wall), 11217.47s(cpu)
        *  Thank you very much for using Q-Chem.  Have a nice day.  *
