 Q-Chem 5.4, Q-Chem, Inc., Pleasanton, CA (2021)
 Q-Chem 5.4.0 for Intel X86 EM64T Linux

User input:
--------------------------------------------------------------
$molecule
0 1
C	-0.217225	-8.517702	-0.236226
C	0.611939	-7.641575	0.448921
S	-1.413715	-7.638634	-1.218777
C	0.323572	-6.264785	0.206907
H	1.418739	-7.966081	1.118185
C	-0.768156	-6.072714	-0.711285
C	-1.215016	-4.787049	-1.053725
C	0.999917	-5.162801	0.804258
C	0.550033	-3.874817	0.464908
C	-0.541024	-3.683952	-0.456457
O	2.028811	-5.499772	1.630752
O	-2.249357	-4.459055	-1.883064
C	-2.586579	-5.329063	-2.956754
H	-3.262802	-4.755694	-3.619069
H	-3.124711	-6.238095	-2.609423
H	-1.686639	-5.637262	-3.531667
C	2.503251	-4.572261	2.599073
H	3.185356	-5.139743	3.260097
H	1.672937	-4.153131	3.207034
H	3.075213	-3.739531	2.135214
C	-0.828107	-2.306654	-0.694410
S	1.188794	-2.306501	0.983256
C	-0.000000	-1.435185	-0.000000
H	-1.632185	-1.978138	-1.364851
C	0.000000	0.000000	0.000000
S	0.309893	0.850039	1.507541
C	0.847011	2.328006	0.718873
C	0.310046	0.849645	-1.067872
C	0.783331	2.156746	-0.686410
S	0.229416	0.619785	-2.805516
C	0.823328	2.267711	-3.054530
C	1.063278	2.934142	-1.862551
F	1.515925	4.191824	-1.819088
C	0.978337	2.688069	-4.456084
O	0.722535	1.961921	-5.406510
O	1.433229	3.959697	-4.569225
C	1.607467	4.423139	-5.916207
H	1.977475	5.460158	-5.833064
H	0.647388	4.396602	-6.470168
H	2.339490	3.791823	-6.459293
H	1.161798	3.197007	1.306486
H	-0.792084	-9.143623	0.456457
H	0.352973	-9.149441	-0.927480
H	-0.688477	-1.443175	0.832067
$end

$rem
JOBTYPE		SP
EXCHANGE	HF
CORRELATION	pRIMP2
BASIS		cc-pvtz
METHOD		rimp2
AUX_BASIS	rimp2-cc-pvtz
SOLVENT_METHOD	PCM
PURECART	11111
SYMMETRY	false
MEM_TOTAL	110000
SCF_CONVERGENCE = 6
THRESH=10
GUI = 2
$end

$solvent
dielectric 4.90
$end
--------------------------------------------------------------

             Standard Nuclear Orientation (Angstroms)
    I     Atom           X                Y                Z
 ----------------------------------------------------------------
    1      C      -0.2172250000    -8.5177020000    -0.2362260000
    2      C       0.6119390000    -7.6415750000     0.4489210000
    3      S      -1.4137150000    -7.6386340000    -1.2187770000
    4      C       0.3235720000    -6.2647850000     0.2069070000
    5      H       1.4187390000    -7.9660810000     1.1181850000
    6      C      -0.7681560000    -6.0727140000    -0.7112850000
    7      C      -1.2150160000    -4.7870490000    -1.0537250000
    8      C       0.9999170000    -5.1628010000     0.8042580000
    9      C       0.5500330000    -3.8748170000     0.4649080000
   10      C      -0.5410240000    -3.6839520000    -0.4564570000
   11      O       2.0288110000    -5.4997720000     1.6307520000
   12      O      -2.2493570000    -4.4590550000    -1.8830640000
   13      C      -2.5865790000    -5.3290630000    -2.9567540000
   14      H      -3.2628020000    -4.7556940000    -3.6190690000
   15      H      -3.1247110000    -6.2380950000    -2.6094230000
   16      H      -1.6866390000    -5.6372620000    -3.5316670000
   17      C       2.5032510000    -4.5722610000     2.5990730000
   18      H       3.1853560000    -5.1397430000     3.2600970000
   19      H       1.6729370000    -4.1531310000     3.2070340000
   20      H       3.0752130000    -3.7395310000     2.1352140000
   21      C      -0.8281070000    -2.3066540000    -0.6944100000
   22      S       1.1887940000    -2.3065010000     0.9832560000
   23      C       0.0000000000    -1.4351850000     0.0000000000
   24      H      -1.6321850000    -1.9781380000    -1.3648510000
   25      C       0.0000000000     0.0000000000     0.0000000000
   26      S       0.3098930000     0.8500390000     1.5075410000
   27      C       0.8470110000     2.3280060000     0.7188730000
   28      C       0.3100460000     0.8496450000    -1.0678720000
   29      C       0.7833310000     2.1567460000    -0.6864100000
   30      S       0.2294160000     0.6197850000    -2.8055160000
   31      C       0.8233280000     2.2677110000    -3.0545300000
   32      C       1.0632780000     2.9341420000    -1.8625510000
   33      F       1.5159250000     4.1918240000    -1.8190880000
   34      C       0.9783370000     2.6880690000    -4.4560840000
   35      O       0.7225350000     1.9619210000    -5.4065100000
   36      O       1.4332290000     3.9596970000    -4.5692250000
   37      C       1.6074670000     4.4231390000    -5.9162070000
   38      H       1.9774750000     5.4601580000    -5.8330640000
   39      H       0.6473880000     4.3966020000    -6.4701680000
   40      H       2.3394900000     3.7918230000    -6.4592930000
   41      H       1.1617980000     3.1970070000     1.3064860000
   42      H      -0.7920840000    -9.1436230000     0.4564570000
   43      H       0.3529730000    -9.1494410000    -0.9274800000
   44      H      -0.6884770000    -1.4431750000     0.8320670000
 ----------------------------------------------------------------

   11   -2755.3368899841      8.12e-07  Convergence criterion met
 Total energy in the final basis set =    -2755.3368899841
        RIMP2         total energy =     -2760.4266728576 a.u.

                    Orbital Energies (a.u.)
 --------------------------------------------------------------

 Alpha MOs
 -- Occupied --
-92.0165 -91.9987 -91.9782 -91.9576 -26.3436 -20.6151 -20.5868 -20.5866
-20.5617 -11.4098 -11.3828 -11.3121 -11.3088 -11.3065 -11.2998 -11.2986
-11.2983 -11.2890 -11.2853 -11.2846 -11.2830 -11.2822 -11.2790 -11.2729
-11.2721 -11.2577 -11.2569 -11.2490 -11.2353  -9.0153  -8.9988  -8.9804
 -8.9602  -6.6960  -6.6955  -6.6949  -6.6798  -6.6791  -6.6780  -6.6615
 -6.6606  -6.6593  -6.6414  -6.6405  -6.6395  -1.6607  -1.4676  -1.4101
 -1.4085  -1.3703  -1.2295  -1.2026  -1.1732  -1.1380  -1.0994  -1.0458
 -1.0447  -1.0246  -1.0037  -0.9968  -0.9630  -0.9592  -0.9481  -0.9403
 -0.8935  -0.8689  -0.8660  -0.8124  -0.7999  -0.7887  -0.7843  -0.7672
 -0.7568  -0.7375  -0.7256  -0.7163  -0.6976  -0.6866  -0.6848  -0.6798
 -0.6741  -0.6608  -0.6560  -0.6483  -0.6350  -0.6307  -0.6194  -0.6146
 -0.6119  -0.5994  -0.5919  -0.5755  -0.5715  -0.5644  -0.5581  -0.5526
 -0.5472  -0.5336  -0.5311  -0.5277  -0.5133  -0.5077  -0.5073  -0.5010
 -0.4850  -0.4813  -0.4761  -0.4746  -0.4730  -0.4688  -0.4596  -0.4457
 -0.4270  -0.3968  -0.3853  -0.3695  -0.3512  -0.3009  -0.2885  -0.2184

          Ground-State Mulliken Net Atomic Charges

     Atom                 Charge (a.u.)
  ----------------------------------------
      1 C                    -0.069878
      2 C                    -0.264886
      3 S                    -0.136654
      4 C                    -0.042818
      5 H                     0.192805
      6 C                    -0.052113
      7 C                     0.222653
      8 C                     0.221539
      9 C                    -0.076065
     10 C                    -0.049956
     11 O                    -0.334903
     12 O                    -0.343660
     13 C                    -0.082633
     14 H                     0.120329
     15 H                     0.091780
     16 H                     0.093175
     17 C                    -0.087234
     18 H                     0.123324
     19 H                     0.091696
     20 H                     0.090084
     21 C                    -0.261842
     22 S                    -0.073868
     23 C                     0.058086
     24 H                     0.210569
     25 C                    -0.105984
     26 S                     0.082150
     27 C                    -0.176287
     28 C                     0.051523
     29 C                    -0.116137
     30 S                     0.008265
     31 C                    -0.155943
     32 C                     0.399606
     33 F                    -0.206870
     34 C                     0.444586
     35 O                    -0.460474
     36 O                    -0.300783
     37 C                    -0.058420
     38 H                     0.121409
     39 H                     0.095113
     40 H                     0.095272
     41 H                     0.218702
     42 H                     0.116607
     43 H                     0.114511
     44 H                     0.193621
  ----------------------------------------
  Sum of atomic charges =     0.000000

                    Cartesian Multipole Moments
 -----------------------------------------------------------------
    Charge (ESU x 10^10)
                 0.0000
    Dipole Moment (Debye)
         X       0.6909      Y       3.0897      Z       3.4618
       Tot       4.6913
    Quadrupole Moments (Debye-Ang)
        XX    -195.1395     XY       2.4298     YY    -178.5734
        XZ       5.6759     YZ      -9.3724     ZZ    -192.4519

 Total job time:  360.56s(wall), 11561.39s(cpu)
        *  Thank you very much for using Q-Chem.  Have a nice day.  *
