 Q-Chem 5.4, Q-Chem, Inc., Pleasanton, CA (2021)
 Q-Chem 5.4.0 for Intel X86 EM64T Linux

User input:
--------------------------------------------------------------
$molecule
0 1
C	0.313191	-8.517702	-0.070009
C	-0.694746	-7.641575	0.305494
S	1.762350	-7.638634	-0.614924
C	-0.340973	-6.264785	0.176768
H	-1.677747	-7.966081	0.669571
C	1.000069	-6.072714	-0.309600
C	1.520060	-4.787049	-0.525372
C	-1.196466	-5.162801	0.463825
C	-0.677639	-3.874817	0.243888
C	0.665815	-3.683952	-0.240312
O	-2.426678	-5.499772	0.941626
O	2.755460	-4.459055	-1.006468
C	3.853913	-5.329063	-0.761666
H	4.765607	-4.755694	-1.016135
H	3.822182	-6.238095	-1.401368
H	3.901833	-5.637262	0.305161
C	-3.502489	-4.572261	0.868342
H	-4.416005	-5.139743	1.128551
H	-3.613841	-4.153131	-0.154712
H	-3.386756	-3.739531	1.595605
C	1.015430	-2.306654	-0.369957
S	-1.445922	-2.306501	0.537898
C	-0.000000	-1.435185	-0.000000
H	1.998088	-1.978138	-0.731088
C	0.000000	0.000000	0.000000
S	0.157577	0.890937	1.507541
C	0.429889	2.439720	0.718873
C	0.157797	0.890576	-1.067872
C	0.396915	2.260004	-0.686410
S	0.118307	0.650207	-2.805516
C	0.417036	2.376229	-3.054530
C	0.537616	3.074202	-1.862551
F	0.764992	4.391378	-1.819088
C	0.496696	2.817118	-4.456084
O	0.370874	2.057582	-5.406510
O	0.723861	4.148418	-4.569225
C	0.814976	4.635075	-5.916207
H	0.999286	5.720591	-5.833064
H	-0.125909	4.442226	-6.470168
H	1.645504	4.140465	-6.459293
H	0.588993	3.350182	1.306486
H	0.000738	-9.143623	-0.914194
H	0.626735	-9.149441	0.769424
H	-0.376353	-1.443175	-1.012272
$end

$rem
JOBTYPE		SP
EXCHANGE	HF
CORRELATION	pRIMP2
BASIS		cc-pvtz
METHOD		rimp2
AUX_BASIS	rimp2-cc-pvtz
SOLVENT_METHOD	PCM
PURECART	11111
SYMMETRY	false
MEM_TOTAL	110000
SCF_CONVERGENCE = 6
THRESH=10
GUI = 2
$end

$solvent
dielectric 4.90
$end
--------------------------------------------------------------

             Standard Nuclear Orientation (Angstroms)
    I     Atom           X                Y                Z
 ----------------------------------------------------------------
    1      C       0.3131910000    -8.5177020000    -0.0700090000
    2      C      -0.6947460000    -7.6415750000     0.3054940000
    3      S       1.7623500000    -7.6386340000    -0.6149240000
    4      C      -0.3409730000    -6.2647850000     0.1767680000
    5      H      -1.6777470000    -7.9660810000     0.6695710000
    6      C       1.0000690000    -6.0727140000    -0.3096000000
    7      C       1.5200600000    -4.7870490000    -0.5253720000
    8      C      -1.1964660000    -5.1628010000     0.4638250000
    9      C      -0.6776390000    -3.8748170000     0.2438880000
   10      C       0.6658150000    -3.6839520000    -0.2403120000
   11      O      -2.4266780000    -5.4997720000     0.9416260000
   12      O       2.7554600000    -4.4590550000    -1.0064680000
   13      C       3.8539130000    -5.3290630000    -0.7616660000
   14      H       4.7656070000    -4.7556940000    -1.0161350000
   15      H       3.8221820000    -6.2380950000    -1.4013680000
   16      H       3.9018330000    -5.6372620000     0.3051610000
   17      C      -3.5024890000    -4.5722610000     0.8683420000
   18      H      -4.4160050000    -5.1397430000     1.1285510000
   19      H      -3.6138410000    -4.1531310000    -0.1547120000
   20      H      -3.3867560000    -3.7395310000     1.5956050000
   21      C       1.0154300000    -2.3066540000    -0.3699570000
   22      S      -1.4459220000    -2.3065010000     0.5378980000
   23      C       0.0000000000    -1.4351850000     0.0000000000
   24      H       1.9980880000    -1.9781380000    -0.7310880000
   25      C       0.0000000000     0.0000000000     0.0000000000
   26      S       0.1575770000     0.8909370000     1.5075410000
   27      C       0.4298890000     2.4397200000     0.7188730000
   28      C       0.1577970000     0.8905760000    -1.0678720000
   29      C       0.3969150000     2.2600040000    -0.6864100000
   30      S       0.1183070000     0.6502070000    -2.8055160000
   31      C       0.4170360000     2.3762290000    -3.0545300000
   32      C       0.5376160000     3.0742020000    -1.8625510000
   33      F       0.7649920000     4.3913780000    -1.8190880000
   34      C       0.4966960000     2.8171180000    -4.4560840000
   35      O       0.3708740000     2.0575820000    -5.4065100000
   36      O       0.7238610000     4.1484180000    -4.5692250000
   37      C       0.8149760000     4.6350750000    -5.9162070000
   38      H       0.9992860000     5.7205910000    -5.8330640000
   39      H      -0.1259090000     4.4422260000    -6.4701680000
   40      H       1.6455040000     4.1404650000    -6.4592930000
   41      H       0.5889930000     3.3501820000     1.3064860000
   42      H       0.0007380000    -9.1436230000    -0.9141940000
   43      H       0.6267350000    -9.1494410000     0.7694240000
   44      H      -0.3763530000    -1.4431750000    -1.0122720000
 ----------------------------------------------------------------

   11   -2755.3465553862      6.89e-07  Convergence criterion met
 Total energy in the final basis set =    -2755.3465553862
        RIMP2         total energy =     -2760.4347361952 a.u.

                    Orbital Energies (a.u.)
 --------------------------------------------------------------

 Alpha MOs
 -- Occupied --
-92.0116 -92.0002 -91.9777 -91.9581 -26.3445 -20.6154 -20.5871 -20.5870
-20.5619 -11.4101 -11.3841 -11.3110 -11.3090 -11.3073 -11.3040 -11.3017
-11.2988 -11.2892 -11.2854 -11.2845 -11.2829 -11.2827 -11.2808 -11.2729
-11.2721 -11.2582 -11.2577 -11.2497 -11.2369  -9.0105  -9.0004  -8.9798
 -8.9607  -6.6913  -6.6907  -6.6902  -6.6814  -6.6807  -6.6795  -6.6609
 -6.6601  -6.6588  -6.6420  -6.6411  -6.6400  -1.6615  -1.4679  -1.4104
 -1.4088  -1.3706  -1.2298  -1.2027  -1.1734  -1.1371  -1.1009  -1.0465
 -1.0458  -1.0235  -1.0035  -0.9972  -0.9625  -0.9591  -0.9486  -0.9414
 -0.8934  -0.8712  -0.8648  -0.8123  -0.7973  -0.7901  -0.7845  -0.7679
 -0.7588  -0.7356  -0.7263  -0.7101  -0.7009  -0.6951  -0.6853  -0.6799
 -0.6744  -0.6650  -0.6556  -0.6485  -0.6355  -0.6305  -0.6200  -0.6149
 -0.6117  -0.5991  -0.5925  -0.5778  -0.5708  -0.5656  -0.5579  -0.5537
 -0.5479  -0.5317  -0.5308  -0.5262  -0.5129  -0.5086  -0.5072  -0.5018
 -0.4853  -0.4815  -0.4762  -0.4746  -0.4698  -0.4685  -0.4609  -0.4464
 -0.4234  -0.4004  -0.3852  -0.3700  -0.3508  -0.3021  -0.2893  -0.2207

          Ground-State Mulliken Net Atomic Charges

     Atom                 Charge (a.u.)
  ----------------------------------------
      1 C                    -0.070315
      2 C                    -0.259576
      3 S                    -0.135200
      4 C                    -0.045021
      5 H                     0.193354
      6 C                    -0.052625
      7 C                     0.223261
      8 C                     0.229765
      9 C                    -0.083411
     10 C                    -0.055480
     11 O                    -0.335209
     12 O                    -0.343035
     13 C                    -0.082729
     14 H                     0.120120
     15 H                     0.092175
     16 H                     0.092570
     17 C                    -0.086361
     18 H                     0.123105
     19 H                     0.092672
     20 H                     0.090149
     21 C                    -0.242739
     22 S                    -0.070099
     23 C                     0.063630
     24 H                     0.208294
     25 C                    -0.082586
     26 S                     0.088879
     27 C                    -0.180109
     28 C                     0.003124
     29 C                    -0.108637
     30 S                     0.004409
     31 C                    -0.158267
     32 C                     0.398503
     33 F                    -0.205772
     34 C                     0.445403
     35 O                    -0.461029
     36 O                    -0.300756
     37 C                    -0.058581
     38 H                     0.121509
     39 H                     0.095272
     40 H                     0.095198
     41 H                     0.217548
     42 H                     0.117391
     43 H                     0.114969
     44 H                     0.186236
  ----------------------------------------
  Sum of atomic charges =     0.000000

                    Cartesian Multipole Moments
 -----------------------------------------------------------------
    Charge (ESU x 10^10)
                -0.0000
    Dipole Moment (Debye)
         X       0.1909      Y       2.8795      Z       2.4291
       Tot       3.7720
    Quadrupole Moments (Debye-Ang)
        XX    -182.8641     XY       6.3503     YY    -174.8781
        XZ      -1.6026     YZ      -8.9073     ZZ    -206.4310

 Total job time:  369.75s(wall), 11740.01s(cpu)
        *  Thank you very much for using Q-Chem.  Have a nice day.  *
