 Q-Chem 5.4, Q-Chem, Inc., Pleasanton, CA (2021)
 Q-Chem 5.4.0 for Intel X86 EM64T Linux

User input:
--------------------------------------------------------------
$molecule
0 1
C	0.320589	-8.517702	-0.014560
C	-0.737240	-7.641575	0.180211
S	1.842356	-7.638634	-0.299553
C	-0.366488	-6.264785	0.114873
H	-1.768528	-7.966081	0.368061
C	1.038637	-6.072714	-0.131236
C	1.588197	-4.787049	-0.253435
C	-1.258831	-5.162801	0.249014
C	-0.709695	-3.874817	0.122513
C	0.697430	-3.683952	-0.121043
O	-2.553323	-5.499772	0.505933
O	2.888369	-4.459055	-0.512697
C	3.927625	-5.329063	-0.080869
H	4.869656	-4.755694	-0.173159
H	4.007459	-6.238095	-0.716363
H	3.789565	-5.637262	0.978072
C	-3.600064	-4.572261	0.246949
H	-4.544887	-5.139743	0.344574
H	-3.532074	-4.153131	-0.779898
H	-3.612378	-3.739531	0.983261
C	1.064246	-2.306654	-0.188009
S	-1.517360	-2.306501	0.278644
C	-0.000000	-1.435185	-0.000000
H	2.094685	-1.978138	-0.373017
C	0.000000	0.000000	0.000000
S	0.581934	0.692785	1.507541
C	1.592155	1.897915	0.718873
C	0.581944	0.692363	-1.067872
C	1.473741	1.758764	-0.686410
S	0.427560	0.503942	-2.805516
C	1.549278	1.849357	-3.054530
C	2.002690	2.393529	-1.862551
F	2.858191	3.420549	-1.819088
C	1.838710	2.191348	-4.456084
O	1.349977	1.596481	-5.406510
O	2.701091	3.230705	-4.569225
C	3.023327	3.606605	-5.916207
H	3.725703	4.454534	-5.833064
H	2.112072	3.910035	-6.470168
H	3.495281	2.762996	-6.459293
H	2.185174	2.606846	1.306486
H	0.159475	-9.143623	-0.900177
H	0.483604	-9.149441	0.866566
H	-0.194856	-1.443175	-1.062246
$end

$rem
JOBTYPE		SP
EXCHANGE	HF
CORRELATION	pRIMP2
BASIS		cc-pvtz
METHOD		rimp2
AUX_BASIS	rimp2-cc-pvtz
SOLVENT_METHOD	PCM
PURECART	11111
SYMMETRY	false
MEM_TOTAL	110000
SCF_CONVERGENCE = 6
THRESH=10
GUI = 2
$end

$solvent
dielectric 4.90
$end
--------------------------------------------------------------

             Standard Nuclear Orientation (Angstroms)
    I     Atom           X                Y                Z
 ----------------------------------------------------------------
    1      C       0.3205890000    -8.5177020000    -0.0145600000
    2      C      -0.7372400000    -7.6415750000     0.1802110000
    3      S       1.8423560000    -7.6386340000    -0.2995530000
    4      C      -0.3664880000    -6.2647850000     0.1148730000
    5      H      -1.7685280000    -7.9660810000     0.3680610000
    6      C       1.0386370000    -6.0727140000    -0.1312360000
    7      C       1.5881970000    -4.7870490000    -0.2534350000
    8      C      -1.2588310000    -5.1628010000     0.2490140000
    9      C      -0.7096950000    -3.8748170000     0.1225130000
   10      C       0.6974300000    -3.6839520000    -0.1210430000
   11      O      -2.5533230000    -5.4997720000     0.5059330000
   12      O       2.8883690000    -4.4590550000    -0.5126970000
   13      C       3.9276250000    -5.3290630000    -0.0808690000
   14      H       4.8696560000    -4.7556940000    -0.1731590000
   15      H       4.0074590000    -6.2380950000    -0.7163630000
   16      H       3.7895650000    -5.6372620000     0.9780720000
   17      C      -3.6000640000    -4.5722610000     0.2469490000
   18      H      -4.5448870000    -5.1397430000     0.3445740000
   19      H      -3.5320740000    -4.1531310000    -0.7798980000
   20      H      -3.6123780000    -3.7395310000     0.9832610000
   21      C       1.0642460000    -2.3066540000    -0.1880090000
   22      S      -1.5173600000    -2.3065010000     0.2786440000
   23      C       0.0000000000    -1.4351850000     0.0000000000
   24      H       2.0946850000    -1.9781380000    -0.3730170000
   25      C       0.0000000000     0.0000000000     0.0000000000
   26      S       0.5819340000     0.6927850000     1.5075410000
   27      C       1.5921550000     1.8979150000     0.7188730000
   28      C       0.5819440000     0.6923630000    -1.0678720000
   29      C       1.4737410000     1.7587640000    -0.6864100000
   30      S       0.4275600000     0.5039420000    -2.8055160000
   31      C       1.5492780000     1.8493570000    -3.0545300000
   32      C       2.0026900000     2.3935290000    -1.8625510000
   33      F       2.8581910000     3.4205490000    -1.8190880000
   34      C       1.8387100000     2.1913480000    -4.4560840000
   35      O       1.3499770000     1.5964810000    -5.4065100000
   36      O       2.7010910000     3.2307050000    -4.5692250000
   37      C       3.0233270000     3.6066050000    -5.9162070000
   38      H       3.7257030000     4.4545340000    -5.8330640000
   39      H       2.1120720000     3.9100350000    -6.4701680000
   40      H       3.4952810000     2.7629960000    -6.4592930000
   41      H       2.1851740000     2.6068460000     1.3064860000
   42      H       0.1594750000    -9.1436230000    -0.9001770000
   43      H       0.4836040000    -9.1494410000     0.8665660000
   44      H      -0.1948560000    -1.4431750000    -1.0622460000
 ----------------------------------------------------------------

   11   -2755.3206464735      6.65e-07  Convergence criterion met
 Total energy in the final basis set =    -2755.3206464735
        RIMP2         total energy =     -2760.4148141300 a.u.

                    Orbital Energies (a.u.)
 --------------------------------------------------------------

 Alpha MOs
 -- Occupied --
-92.0100 -92.0058 -91.9714 -91.9573 -26.3462 -20.6160 -20.5866 -20.5851
-20.5625 -11.4110 -11.3867 -11.3233 -11.3130 -11.3082 -11.3043 -11.2997
-11.2897 -11.2874 -11.2870 -11.2830 -11.2825 -11.2804 -11.2761 -11.2718
-11.2702 -11.2569 -11.2561 -11.2487 -11.2348  -9.0094  -9.0058  -8.9738
 -8.9599  -6.6901  -6.6893  -6.6890  -6.6868  -6.6860  -6.6850  -6.6549
 -6.6540  -6.6528  -6.6412  -6.6403  -6.6392  -1.6632  -1.4685  -1.4090
 -1.4079  -1.3712  -1.2345  -1.2007  -1.1723  -1.1391  -1.0998  -1.0488
 -1.0441  -1.0254  -1.0014  -0.9954  -0.9640  -0.9582  -0.9483  -0.9418
 -0.8915  -0.8721  -0.8622  -0.8149  -0.7968  -0.7903  -0.7828  -0.7668
 -0.7598  -0.7344  -0.7279  -0.7120  -0.7010  -0.6938  -0.6860  -0.6792
 -0.6751  -0.6658  -0.6546  -0.6476  -0.6358  -0.6292  -0.6191  -0.6145
 -0.6106  -0.6007  -0.5929  -0.5751  -0.5726  -0.5653  -0.5562  -0.5553
 -0.5474  -0.5320  -0.5260  -0.5232  -0.5124  -0.5099  -0.5062  -0.5003
 -0.4851  -0.4826  -0.4760  -0.4747  -0.4682  -0.4678  -0.4581  -0.4447
 -0.4185  -0.4004  -0.3828  -0.3688  -0.3517  -0.3077  -0.2875  -0.2191

          Ground-State Mulliken Net Atomic Charges

     Atom                 Charge (a.u.)
  ----------------------------------------
      1 C                    -0.070017
      2 C                    -0.265273
      3 S                    -0.137030
      4 C                    -0.042804
      5 H                     0.192762
      6 C                    -0.052297
      7 C                     0.223383
      8 C                     0.224010
      9 C                    -0.078011
     10 C                    -0.043717
     11 O                    -0.335971
     12 O                    -0.343622
     13 C                    -0.082639
     14 H                     0.119542
     15 H                     0.092186
     16 H                     0.092542
     17 C                    -0.086245
     18 H                     0.122475
     19 H                     0.091772
     20 H                     0.090196
     21 C                    -0.261854
     22 S                    -0.087775
     23 C                     0.055233
     24 H                     0.207171
     25 C                    -0.092798
     26 S                     0.090430
     27 C                    -0.155170
     28 C                    -0.020513
     29 C                    -0.085158
     30 S                     0.027776
     31 C                    -0.156058
     32 C                     0.397650
     33 F                    -0.204234
     34 C                     0.447190
     35 O                    -0.461236
     36 O                    -0.301197
     37 C                    -0.058272
     38 H                     0.121607
     39 H                     0.095390
     40 H                     0.095386
     41 H                     0.218847
     42 H                     0.116738
     43 H                     0.114226
     44 H                     0.185381
  ----------------------------------------
  Sum of atomic charges =     0.000000

                    Cartesian Multipole Moments
 -----------------------------------------------------------------
    Charge (ESU x 10^10)
                 0.0000
    Dipole Moment (Debye)
         X       2.1896      Y       3.3448      Z       2.1207
       Tot       4.5254
    Quadrupole Moments (Debye-Ang)
        XX    -177.1492     XY      11.8066     YY    -183.8075
        XZ      -1.9001     YZ      -6.5188     ZZ    -204.9876

 Total job time:  349.57s(wall), 10583.35s(cpu)
        *  Thank you very much for using Q-Chem.  Have a nice day.  *
