 Q-Chem 5.4, Q-Chem, Inc., Pleasanton, CA (2021)
 Q-Chem 5.4.0 for Intel X86 EM64T Linux

User input:
--------------------------------------------------------------
$molecule
0 1
C	0.270358	-8.517702	-0.172904
C	-0.548363	-7.641575	0.524688
S	1.445750	-7.638634	-1.180599
C	-0.259951	-6.264785	0.282727
H	-1.347559	-7.966081	1.203014
C	0.833868	-6.072714	-0.632972
C	1.248701	-4.787049	-1.013580
C	-0.965673	-5.162801	0.845068
C	-0.553357	-3.874817	0.460946
C	0.543470	-3.683952	-0.453541
O	-1.958276	-5.499772	1.714812
O	2.245053	-4.459055	-1.888193
C	3.360989	-5.329063	-2.033848
H	4.130667	-4.755694	-2.584788
H	3.112380	-6.238095	-2.624118
H	3.770895	-5.637262	-1.047748
C	-2.994272	-4.572261	2.013896
H	-3.763700	-5.139743	2.570853
H	-3.448815	-4.153131	1.090625
H	-2.636780	-3.739531	2.657717
C	0.827659	-2.306654	-0.694943
S	-1.174750	-2.306501	0.999993
C	-0.000000	-1.435185	-0.000000
H	1.627541	-1.978138	-1.370385
C	0.000000	0.000000	0.000000
S	0.783786	0.451972	1.507541
C	2.145261	1.238908	0.718873
C	0.783650	0.451572	-1.067872
C	1.986396	1.148648	-0.686410
S	0.574133	0.327317	-2.805516
C	2.088363	1.207943	-3.054530
C	2.700548	1.564221	-1.862551
F	3.855718	2.236706	-1.819088
C	2.477307	1.430318	-4.456084
O	1.814592	1.038482	-5.406510
O	3.643162	2.112042	-4.569225
C	4.074530	2.355061	-5.916207
H	5.024556	2.911627	-5.833064
H	3.322010	2.951860	-6.470168
H	4.229490	1.400910	-6.459293
H	2.944986	1.702260	1.306486
H	-0.311979	-9.143623	-0.859314
H	0.852097	-9.149441	0.508666
H	-0.699874	-1.443175	-0.822504
$end

$rem
JOBTYPE		SP
EXCHANGE	HF
CORRELATION	pRIMP2
BASIS		cc-pvtz
METHOD		rimp2
AUX_BASIS	rimp2-cc-pvtz
SOLVENT_METHOD	PCM
PURECART	11111
SYMMETRY	false
MEM_TOTAL	110000
SCF_CONVERGENCE = 6
THRESH=10
GUI = 2
$end

$solvent
dielectric 4.90
$end
--------------------------------------------------------------

             Standard Nuclear Orientation (Angstroms)
    I     Atom           X                Y                Z
 ----------------------------------------------------------------
    1      C       0.2703580000    -8.5177020000    -0.1729040000
    2      C      -0.5483630000    -7.6415750000     0.5246880000
    3      S       1.4457500000    -7.6386340000    -1.1805990000
    4      C      -0.2599510000    -6.2647850000     0.2827270000
    5      H      -1.3475590000    -7.9660810000     1.2030140000
    6      C       0.8338680000    -6.0727140000    -0.6329720000
    7      C       1.2487010000    -4.7870490000    -1.0135800000
    8      C      -0.9656730000    -5.1628010000     0.8450680000
    9      C      -0.5533570000    -3.8748170000     0.4609460000
   10      C       0.5434700000    -3.6839520000    -0.4535410000
   11      O      -1.9582760000    -5.4997720000     1.7148120000
   12      O       2.2450530000    -4.4590550000    -1.8881930000
   13      C       3.3609890000    -5.3290630000    -2.0338480000
   14      H       4.1306670000    -4.7556940000    -2.5847880000
   15      H       3.1123800000    -6.2380950000    -2.6241180000
   16      H       3.7708950000    -5.6372620000    -1.0477480000
   17      C      -2.9942720000    -4.5722610000     2.0138960000
   18      H      -3.7637000000    -5.1397430000     2.5708530000
   19      H      -3.4488150000    -4.1531310000     1.0906250000
   20      H      -2.6367800000    -3.7395310000     2.6577170000
   21      C       0.8276590000    -2.3066540000    -0.6949430000
   22      S      -1.1747500000    -2.3065010000     0.9999930000
   23      C       0.0000000000    -1.4351850000     0.0000000000
   24      H       1.6275410000    -1.9781380000    -1.3703850000
   25      C       0.0000000000     0.0000000000     0.0000000000
   26      S       0.7837860000     0.4519720000     1.5075410000
   27      C       2.1452610000     1.2389080000     0.7188730000
   28      C       0.7836500000     0.4515720000    -1.0678720000
   29      C       1.9863960000     1.1486480000    -0.6864100000
   30      S       0.5741330000     0.3273170000    -2.8055160000
   31      C       2.0883630000     1.2079430000    -3.0545300000
   32      C       2.7005480000     1.5642210000    -1.8625510000
   33      F       3.8557180000     2.2367060000    -1.8190880000
   34      C       2.4773070000     1.4303180000    -4.4560840000
   35      O       1.8145920000     1.0384820000    -5.4065100000
   36      O       3.6431620000     2.1120420000    -4.5692250000
   37      C       4.0745300000     2.3550610000    -5.9162070000
   38      H       5.0245560000     2.9116270000    -5.8330640000
   39      H       3.3220100000     2.9518600000    -6.4701680000
   40      H       4.2294900000     1.4009100000    -6.4592930000
   41      H       2.9449860000     1.7022600000     1.3064860000
   42      H      -0.3119790000    -9.1436230000    -0.8593140000
   43      H       0.8520970000    -9.1494410000     0.5086660000
   44      H      -0.6998740000    -1.4431750000    -0.8225040000
 ----------------------------------------------------------------

   11   -2755.2789284524      7.42e-07  Convergence criterion met
 Total energy in the final basis set =    -2755.2789284524
        RIMP2         total energy =     -2760.3823740499 a.u.

                    Orbital Energies (a.u.)
 --------------------------------------------------------------

 Alpha MOs
 -- Occupied --
-92.0123 -92.0087 -91.9725 -91.9554 -26.3483 -20.6169 -20.5861 -20.5840
-20.5635 -11.4123 -11.3895 -11.3358 -11.3228 -11.3076 -11.3022 -11.3014
-11.2909 -11.2903 -11.2826 -11.2821 -11.2801 -11.2741 -11.2705 -11.2703
-11.2688 -11.2555 -11.2519 -11.2468 -11.2304  -9.0120  -9.0088  -8.9747
 -8.9581  -6.6929  -6.6921  -6.6912  -6.6894  -6.6883  -6.6882  -6.6558
 -6.6550  -6.6538  -6.6393  -6.6384  -6.6374  -1.6652  -1.4695  -1.4083
 -1.4069  -1.3723  -1.2429  -1.1999  -1.1712  -1.1420  -1.0994  -1.0514
 -1.0432  -1.0282  -1.0009  -0.9946  -0.9657  -0.9595  -0.9478  -0.9416
 -0.8912  -0.8741  -0.8593  -0.8153  -0.8001  -0.7913  -0.7811  -0.7651
 -0.7603  -0.7353  -0.7298  -0.7138  -0.7007  -0.6931  -0.6870  -0.6804
 -0.6760  -0.6661  -0.6545  -0.6471  -0.6388  -0.6302  -0.6174  -0.6151
 -0.6111  -0.6032  -0.5920  -0.5776  -0.5732  -0.5667  -0.5566  -0.5552
 -0.5390  -0.5327  -0.5259  -0.5224  -0.5135  -0.5095  -0.5057  -0.4994
 -0.4877  -0.4811  -0.4776  -0.4748  -0.4679  -0.4633  -0.4553  -0.4433
 -0.4212  -0.3965  -0.3795  -0.3666  -0.3540  -0.3121  -0.2864  -0.2147

          Ground-State Mulliken Net Atomic Charges

     Atom                 Charge (a.u.)
  ----------------------------------------
      1 C                    -0.068849
      2 C                    -0.278576
      3 S                    -0.142378
      4 C                    -0.039974
      5 H                     0.191038
      6 C                    -0.054066
      7 C                     0.227856
      8 C                     0.222648
      9 C                    -0.070010
     10 C                    -0.057653
     11 O                    -0.336110
     12 O                    -0.344342
     13 C                    -0.082867
     14 H                     0.119231
     15 H                     0.092627
     16 H                     0.092345
     17 C                    -0.086800
     18 H                     0.123152
     19 H                     0.091458
     20 H                     0.089616
     21 C                    -0.275312
     22 S                    -0.108318
     23 C                     0.092795
     24 H                     0.206610
     25 C                    -0.213648
     26 S                     0.103767
     27 C                    -0.117927
     28 C                     0.039833
     29 C                    -0.108612
     30 S                     0.064904
     31 C                    -0.153265
     32 C                     0.404935
     33 F                    -0.203389
     34 C                     0.448611
     35 O                    -0.461453
     36 O                    -0.301216
     37 C                    -0.058007
     38 H                     0.121853
     39 H                     0.095570
     40 H                     0.095599
     41 H                     0.220000
     42 H                     0.114868
     43 H                     0.112363
     44 H                     0.191095
  ----------------------------------------
  Sum of atomic charges =     0.000000

                    Cartesian Multipole Moments
 -----------------------------------------------------------------
    Charge (ESU x 10^10)
                 0.0000
    Dipole Moment (Debye)
         X       3.4075      Y       3.6478      Z       1.8682
       Tot       5.3299
    Quadrupole Moments (Debye-Ang)
        XX    -172.2578     XY      10.7645     YY    -196.3962
        XZ     -12.5074     YZ      -5.9507     ZZ    -201.8488

 Total job time:  330.91s(wall), 10713.20s(cpu)
        *  Thank you very much for using Q-Chem.  Have a nice day.  *
