 Q-Chem 5.4, Q-Chem, Inc., Pleasanton, CA (2021)
 Q-Chem 5.4.0 for Intel X86 EM64T Linux

User input:
--------------------------------------------------------------
$molecule
0 1
C	-0.095966	-8.517702	0.306235
C	0.082807	-7.641575	-0.754415
S	-0.348635	-7.638634	1.833702
C	0.017401	-6.264785	-0.383675
H	0.259008	-7.966081	-1.787757
C	-0.231913	-6.072714	1.020885
C	-0.305044	-4.787049	1.579097
C	0.196549	-5.162801	-1.268082
C	0.127606	-3.874817	-0.708796
C	-0.124792	-3.683952	0.696769
O	0.397867	-5.499772	-2.572378
O	-0.506103	-4.459055	2.889532
C	-1.267335	-5.329063	3.718420
H	-1.502804	-4.755694	4.635204
H	-0.697471	-6.238095	4.010790
H	-2.215194	-5.637262	3.226506
C	0.999238	-4.572261	-3.467415
H	1.230649	-5.139743	-4.388648
H	1.940905	-4.153131	-3.052323
H	0.311543	-3.739531	-3.730819
C	-0.187323	-2.306654	1.064366
S	0.257128	-2.306501	-1.521154
C	0.000000	-1.435185	0.000000
H	-0.365903	-1.978138	2.095939
C	0.000000	0.000000	0.000000
S	0.783786	0.451972	1.507541
C	2.145261	1.238908	0.718873
C	0.783650	0.451572	-1.067872
C	1.986396	1.148648	-0.686410
S	0.574133	0.327317	-2.805516
C	2.088363	1.207943	-3.054530
C	2.700548	1.564221	-1.862551
F	3.855718	2.236706	-1.819088
C	2.477307	1.430318	-4.456084
O	1.814592	1.038482	-5.406510
O	3.643162	2.112042	-4.569225
C	4.074530	2.355061	-5.916207
H	5.024556	2.911627	-5.833064
H	3.322010	2.951860	-6.470168
H	4.229490	1.400910	-6.459293
H	2.944986	1.702260	1.306486
H	0.791346	-9.143623	0.457736
H	-0.979708	-9.149441	0.158056
H	1.064830	-1.443175	0.180205
$end

$rem
JOBTYPE		SP
EXCHANGE	HF
CORRELATION	pRIMP2
BASIS		cc-pvtz
METHOD		rimp2
AUX_BASIS	rimp2-cc-pvtz
SOLVENT_METHOD	PCM
PURECART	11111
SYMMETRY	false
MEM_TOTAL	110000
SCF_CONVERGENCE = 6
THRESH=10
GUI = 2
$end

$solvent
dielectric 4.90
$end
--------------------------------------------------------------

             Standard Nuclear Orientation (Angstroms)
    I     Atom           X                Y                Z
 ----------------------------------------------------------------
    1      C      -0.0959660000    -8.5177020000     0.3062350000
    2      C       0.0828070000    -7.6415750000    -0.7544150000
    3      S      -0.3486350000    -7.6386340000     1.8337020000
    4      C       0.0174010000    -6.2647850000    -0.3836750000
    5      H       0.2590080000    -7.9660810000    -1.7877570000
    6      C      -0.2319130000    -6.0727140000     1.0208850000
    7      C      -0.3050440000    -4.7870490000     1.5790970000
    8      C       0.1965490000    -5.1628010000    -1.2680820000
    9      C       0.1276060000    -3.8748170000    -0.7087960000
   10      C      -0.1247920000    -3.6839520000     0.6967690000
   11      O       0.3978670000    -5.4997720000    -2.5723780000
   12      O      -0.5061030000    -4.4590550000     2.8895320000
   13      C      -1.2673350000    -5.3290630000     3.7184200000
   14      H      -1.5028040000    -4.7556940000     4.6352040000
   15      H      -0.6974710000    -6.2380950000     4.0107900000
   16      H      -2.2151940000    -5.6372620000     3.2265060000
   17      C       0.9992380000    -4.5722610000    -3.4674150000
   18      H       1.2306490000    -5.1397430000    -4.3886480000
   19      H       1.9409050000    -4.1531310000    -3.0523230000
   20      H       0.3115430000    -3.7395310000    -3.7308190000
   21      C      -0.1873230000    -2.3066540000     1.0643660000
   22      S       0.2571280000    -2.3065010000    -1.5211540000
   23      C       0.0000000000    -1.4351850000     0.0000000000
   24      H      -0.3659030000    -1.9781380000     2.0959390000
   25      C       0.0000000000     0.0000000000     0.0000000000
   26      S       0.7837860000     0.4519720000     1.5075410000
   27      C       2.1452610000     1.2389080000     0.7188730000
   28      C       0.7836500000     0.4515720000    -1.0678720000
   29      C       1.9863960000     1.1486480000    -0.6864100000
   30      S       0.5741330000     0.3273170000    -2.8055160000
   31      C       2.0883630000     1.2079430000    -3.0545300000
   32      C       2.7005480000     1.5642210000    -1.8625510000
   33      F       3.8557180000     2.2367060000    -1.8190880000
   34      C       2.4773070000     1.4303180000    -4.4560840000
   35      O       1.8145920000     1.0384820000    -5.4065100000
   36      O       3.6431620000     2.1120420000    -4.5692250000
   37      C       4.0745300000     2.3550610000    -5.9162070000
   38      H       5.0245560000     2.9116270000    -5.8330640000
   39      H       3.3220100000     2.9518600000    -6.4701680000
   40      H       4.2294900000     1.4009100000    -6.4592930000
   41      H       2.9449860000     1.7022600000     1.3064860000
   42      H       0.7913460000    -9.1436230000     0.4577360000
   43      H      -0.9797080000    -9.1494410000     0.1580560000
   44      H       1.0648300000    -1.4431750000     0.1802050000
 ----------------------------------------------------------------

   11   -2755.2636515170      7.02e-07  Convergence criterion met
 Total energy in the final basis set =    -2755.2636515170
        RIMP2         total energy =     -2760.3761823622 a.u.

                    Orbital Energies (a.u.)
 --------------------------------------------------------------

 Alpha MOs
 -- Occupied --
-92.0085 -92.0038 -91.9712 -91.9576 -26.3452 -20.6161 -20.5866 -20.5859
-20.5627 -11.4111 -11.3849 -11.3290 -11.3100 -11.3078 -11.3064 -11.2995
-11.2897 -11.2897 -11.2830 -11.2826 -11.2826 -11.2780 -11.2775 -11.2716
-11.2663 -11.2573 -11.2551 -11.2494 -11.2367  -9.0090  -9.0040  -8.9742
 -8.9603  -6.6896  -6.6887  -6.6885  -6.6849  -6.6841  -6.6831  -6.6550
 -6.6543  -6.6528  -6.6415  -6.6406  -6.6395  -1.6624  -1.4686  -1.4094
 -1.4082  -1.3713  -1.2460  -1.1989  -1.1738  -1.1422  -1.0987  -1.0510
 -1.0438  -1.0298  -1.0013  -0.9940  -0.9675  -0.9552  -0.9499  -0.9423
 -0.8924  -0.8726  -0.8567  -0.8209  -0.7946  -0.7872  -0.7808  -0.7680
 -0.7574  -0.7380  -0.7273  -0.7148  -0.6972  -0.6950  -0.6860  -0.6821
 -0.6751  -0.6674  -0.6547  -0.6478  -0.6365  -0.6312  -0.6196  -0.6149
 -0.6101  -0.6030  -0.5921  -0.5798  -0.5704  -0.5682  -0.5589  -0.5551
 -0.5423  -0.5335  -0.5307  -0.5252  -0.5158  -0.5117  -0.5069  -0.4998
 -0.4844  -0.4826  -0.4781  -0.4736  -0.4688  -0.4612  -0.4529  -0.4452
 -0.4272  -0.3909  -0.3792  -0.3682  -0.3528  -0.3049  -0.2854  -0.2147

          Ground-State Mulliken Net Atomic Charges

     Atom                 Charge (a.u.)
  ----------------------------------------
      1 C                    -0.070353
      2 C                    -0.258992
      3 S                    -0.137290
      4 C                    -0.047628
      5 H                     0.193552
      6 C                    -0.051255
      7 C                     0.219267
      8 C                     0.226355
      9 C                    -0.068383
     10 C                    -0.034983
     11 O                    -0.335019
     12 O                    -0.343711
     13 C                    -0.082926
     14 H                     0.119537
     15 H                     0.091824
     16 H                     0.092943
     17 C                    -0.087627
     18 H                     0.123599
     19 H                     0.091102
     20 H                     0.092100
     21 C                    -0.304188
     22 S                    -0.103350
     23 C                     0.107115
     24 H                     0.196958
     25 C                    -0.132101
     26 S                     0.079798
     27 C                    -0.142060
     28 C                     0.028599
     29 C                    -0.105882
     30 S                     0.049558
     31 C                    -0.152137
     32 C                     0.393499
     33 F                    -0.205978
     34 C                     0.448144
     35 O                    -0.460673
     36 O                    -0.300678
     37 C                    -0.058284
     38 H                     0.121687
     39 H                     0.095478
     40 H                     0.095143
     41 H                     0.220352
     42 H                     0.117255
     43 H                     0.115023
     44 H                     0.164610
  ----------------------------------------
  Sum of atomic charges =     0.000000

                    Cartesian Multipole Moments
 -----------------------------------------------------------------
    Charge (ESU x 10^10)
                -0.0000
    Dipole Moment (Debye)
         X       3.8255      Y       1.9707      Z       2.2785
       Tot       4.8693
    Quadrupole Moments (Debye-Ang)
        XX    -184.5034     XY       7.3108     YY    -187.4262
        XZ     -14.4580     YZ       0.5884     ZZ    -190.2152

 Total job time:  336.21s(wall), 10972.55s(cpu)
        *  Thank you very much for using Q-Chem.  Have a nice day.  *
