 Q-Chem 5.4, Q-Chem, Inc., Pleasanton, CA (2021)
 Q-Chem 5.4.0 for Intel X86 EM64T Linux

User input:
--------------------------------------------------------------
$molecule
0 1
C	0.320589	-8.517702	-0.014560
C	-0.737240	-7.641575	0.180211
S	1.842356	-7.638634	-0.299553
C	-0.366488	-6.264785	0.114873
H	-1.768528	-7.966081	0.368061
C	1.038637	-6.072714	-0.131236
C	1.588197	-4.787049	-0.253435
C	-1.258831	-5.162801	0.249014
C	-0.709695	-3.874817	0.122513
C	0.697430	-3.683952	-0.121043
O	-2.553323	-5.499772	0.505933
O	2.888369	-4.459055	-0.512697
C	3.927625	-5.329063	-0.080869
H	4.869656	-4.755694	-0.173159
H	4.007459	-6.238095	-0.716363
H	3.789565	-5.637262	0.978072
C	-3.600064	-4.572261	0.246949
H	-4.544887	-5.139743	0.344574
H	-3.532074	-4.153131	-0.779898
H	-3.612378	-3.739531	0.983261
C	1.064246	-2.306654	-0.188009
S	-1.517360	-2.306501	0.278644
C	0.000000	-1.435185	0.000000
H	2.094685	-1.978138	-0.373017
C	0.000000	0.000000	0.000000
S	0.452792	0.783312	1.507541
C	1.238397	2.145556	0.718873
C	0.452875	0.782898	-1.067872
C	1.145945	1.987956	-0.686410
S	0.333556	0.570531	-2.805516
C	1.204604	2.090290	-3.054530
C	1.556633	2.704929	-1.862551
F	2.220797	3.864903	-1.819088
C	1.430252	2.477345	-4.456084
O	1.052242	1.806648	-5.406510
O	2.099050	3.650663	-4.569225
C	2.351116	4.076808	-5.916207
H	2.895579	5.033821	-5.833064
H	1.401015	4.217390	-6.470168
H	2.962391	3.327969	-6.459293
H	1.699302	2.946693	1.306486
H	0.159475	-9.143623	-0.900177
H	0.483604	-9.149441	0.866566
H	-0.194856	-1.443175	-1.062246
$end

$rem
JOBTYPE		SP
EXCHANGE	HF
CORRELATION	pRIMP2
BASIS		cc-pvtz
METHOD		rimp2
AUX_BASIS	rimp2-cc-pvtz
SOLVENT_METHOD	PCM
PURECART	11111
SYMMETRY	false
MEM_TOTAL	110000
SCF_CONVERGENCE = 6
THRESH=10
GUI = 2
$end

$solvent
dielectric 4.90
$end
--------------------------------------------------------------

             Standard Nuclear Orientation (Angstroms)
    I     Atom           X                Y                Z
 ----------------------------------------------------------------
    1      C       0.3205890000    -8.5177020000    -0.0145600000
    2      C      -0.7372400000    -7.6415750000     0.1802110000
    3      S       1.8423560000    -7.6386340000    -0.2995530000
    4      C      -0.3664880000    -6.2647850000     0.1148730000
    5      H      -1.7685280000    -7.9660810000     0.3680610000
    6      C       1.0386370000    -6.0727140000    -0.1312360000
    7      C       1.5881970000    -4.7870490000    -0.2534350000
    8      C      -1.2588310000    -5.1628010000     0.2490140000
    9      C      -0.7096950000    -3.8748170000     0.1225130000
   10      C       0.6974300000    -3.6839520000    -0.1210430000
   11      O      -2.5533230000    -5.4997720000     0.5059330000
   12      O       2.8883690000    -4.4590550000    -0.5126970000
   13      C       3.9276250000    -5.3290630000    -0.0808690000
   14      H       4.8696560000    -4.7556940000    -0.1731590000
   15      H       4.0074590000    -6.2380950000    -0.7163630000
   16      H       3.7895650000    -5.6372620000     0.9780720000
   17      C      -3.6000640000    -4.5722610000     0.2469490000
   18      H      -4.5448870000    -5.1397430000     0.3445740000
   19      H      -3.5320740000    -4.1531310000    -0.7798980000
   20      H      -3.6123780000    -3.7395310000     0.9832610000
   21      C       1.0642460000    -2.3066540000    -0.1880090000
   22      S      -1.5173600000    -2.3065010000     0.2786440000
   23      C       0.0000000000    -1.4351850000     0.0000000000
   24      H       2.0946850000    -1.9781380000    -0.3730170000
   25      C       0.0000000000     0.0000000000     0.0000000000
   26      S       0.4527920000     0.7833120000     1.5075410000
   27      C       1.2383970000     2.1455560000     0.7188730000
   28      C       0.4528750000     0.7828980000    -1.0678720000
   29      C       1.1459450000     1.9879560000    -0.6864100000
   30      S       0.3335560000     0.5705310000    -2.8055160000
   31      C       1.2046040000     2.0902900000    -3.0545300000
   32      C       1.5566330000     2.7049290000    -1.8625510000
   33      F       2.2207970000     3.8649030000    -1.8190880000
   34      C       1.4302520000     2.4773450000    -4.4560840000
   35      O       1.0522420000     1.8066480000    -5.4065100000
   36      O       2.0990500000     3.6506630000    -4.5692250000
   37      C       2.3511160000     4.0768080000    -5.9162070000
   38      H       2.8955790000     5.0338210000    -5.8330640000
   39      H       1.4010150000     4.2173900000    -6.4701680000
   40      H       2.9623910000     3.3279690000    -6.4592930000
   41      H       1.6993020000     2.9466930000     1.3064860000
   42      H       0.1594750000    -9.1436230000    -0.9001770000
   43      H       0.4836040000    -9.1494410000     0.8665660000
   44      H      -0.1948560000    -1.4431750000    -1.0622460000
 ----------------------------------------------------------------

   11   -2755.3330164366      6.67e-07  Convergence criterion met
 Total energy in the final basis set =    -2755.3330164366
        RIMP2         total energy =     -2760.4243990410 a.u.

                    Orbital Energies (a.u.)
 --------------------------------------------------------------

 Alpha MOs
 -- Occupied --
-92.0105 -92.0033 -91.9735 -91.9577 -26.3455 -20.6157 -20.5868 -20.5858
-20.5622 -11.4106 -11.3855 -11.3181 -11.3093 -11.3085 -11.3054 -11.2992
-11.2934 -11.2895 -11.2864 -11.2835 -11.2826 -11.2813 -11.2780 -11.2723
-11.2709 -11.2574 -11.2569 -11.2491 -11.2358  -9.0096  -9.0033  -8.9758
 -8.9603  -6.6904  -6.6897  -6.6893  -6.6843  -6.6836  -6.6825  -6.6569
 -6.6560  -6.6548  -6.6415  -6.6406  -6.6396  -1.6624  -1.4682  -1.4095
 -1.4083  -1.3709  -1.2321  -1.2015  -1.1727  -1.1381  -1.1002  -1.0477
 -1.0448  -1.0245  -1.0022  -0.9961  -0.9633  -0.9584  -0.9483  -0.9417
 -0.8921  -0.8715  -0.8635  -0.8140  -0.7965  -0.7903  -0.7835  -0.7672
 -0.7594  -0.7347  -0.7272  -0.7112  -0.7009  -0.6943  -0.6857  -0.6794
 -0.6748  -0.6654  -0.6549  -0.6480  -0.6353  -0.6296  -0.6195  -0.6146
 -0.6109  -0.6000  -0.5928  -0.5764  -0.5716  -0.5653  -0.5569  -0.5548
 -0.5481  -0.5318  -0.5266  -0.5249  -0.5125  -0.5094  -0.5066  -0.5009
 -0.4850  -0.4822  -0.4758  -0.4748  -0.4692  -0.4681  -0.4591  -0.4453
 -0.4200  -0.4009  -0.3837  -0.3693  -0.3513  -0.3052  -0.2882  -0.2199

          Ground-State Mulliken Net Atomic Charges

     Atom                 Charge (a.u.)
  ----------------------------------------
      1 C                    -0.070211
      2 C                    -0.262657
      3 S                    -0.136133
      4 C                    -0.044003
      5 H                     0.193079
      6 C                    -0.052612
      7 C                     0.223071
      8 C                     0.227448
      9 C                    -0.082339
     10 C                    -0.040967
     11 O                    -0.335754
     12 O                    -0.343373
     13 C                    -0.082605
     14 H                     0.119759
     15 H                     0.092149
     16 H                     0.092554
     17 C                    -0.086162
     18 H                     0.122602
     19 H                     0.092077
     20 H                     0.090150
     21 C                    -0.259436
     22 S                    -0.077821
     23 C                     0.055182
     24 H                     0.207372
     25 C                    -0.073315
     26 S                     0.088386
     27 C                    -0.168377
     28 C                    -0.026375
     29 C                    -0.087032
     30 S                     0.016215
     31 C                    -0.157703
     32 C                     0.397122
     33 F                    -0.204779
     34 C                     0.446355
     35 O                    -0.461118
     36 O                    -0.301116
     37 C                    -0.058347
     38 H                     0.121589
     39 H                     0.095300
     40 H                     0.095308
     41 H                     0.218197
     42 H                     0.117087
     43 H                     0.114582
     44 H                     0.186656
  ----------------------------------------
  Sum of atomic charges =     0.000000

                    Cartesian Multipole Moments
 -----------------------------------------------------------------
    Charge (ESU x 10^10)
                 0.0000
    Dipole Moment (Debye)
         X       1.4884      Y       3.1923      Z       2.2391
       Tot       4.1737
    Quadrupole Moments (Debye-Ang)
        XX    -179.9023     XY      10.7128     YY    -179.7919
        XZ      -0.8452     YZ      -7.2944     ZZ    -205.4662

 Total job time:  354.04s(wall), 10732.36s(cpu)
        *  Thank you very much for using Q-Chem.  Have a nice day.  *
