 Q-Chem 5.4, Q-Chem, Inc., Pleasanton, CA (2021)
 Q-Chem 5.4.0 for Intel X86 EM64T Linux

User input:
--------------------------------------------------------------
$molecule
0 1
C	0.172904	-8.517702	0.270358
C	-0.524688	-7.641575	-0.548363
S	1.180599	-7.638634	1.445750
C	-0.282727	-6.264785	-0.259951
H	-1.203014	-7.966081	-1.347559
C	0.632972	-6.072714	0.833868
C	1.013580	-4.787049	1.248701
C	-0.845068	-5.162801	-0.965673
C	-0.460946	-3.874817	-0.553357
C	0.453541	-3.683952	0.543470
O	-1.714812	-5.499772	-1.958276
O	1.888193	-4.459055	2.245053
C	2.033848	-5.329063	3.360989
H	2.584788	-4.755694	4.130667
H	2.624118	-6.238095	3.112380
H	1.047748	-5.637262	3.770895
C	-2.013896	-4.572261	-2.994272
H	-2.570853	-5.139743	-3.763700
H	-1.090625	-4.153131	-3.448815
H	-2.657717	-3.739531	-2.636780
C	0.694943	-2.306654	0.827659
S	-0.999993	-2.306501	-1.174750
C	-0.000000	-1.435185	-0.000000
H	1.370385	-1.978138	1.627541
C	0.000000	0.000000	0.000000
S	0.157577	0.890937	1.507541
C	0.429889	2.439720	0.718873
C	0.157797	0.890576	-1.067872
C	0.396915	2.260004	-0.686410
S	0.118307	0.650207	-2.805516
C	0.417036	2.376229	-3.054530
C	0.537616	3.074202	-1.862551
F	0.764992	4.391378	-1.819088
C	0.496696	2.817118	-4.456084
O	0.370874	2.057582	-5.406510
O	0.723861	4.148418	-4.569225
C	0.814976	4.635075	-5.916207
H	0.999286	5.720591	-5.833064
H	-0.125909	4.442226	-6.470168
H	1.645504	4.140465	-6.459293
H	0.588993	3.350182	1.306486
H	0.859314	-9.143623	-0.311979
H	-0.508666	-9.149441	0.852097
H	0.822504	-1.443175	-0.699874
$end

$rem
JOBTYPE		SP
EXCHANGE	HF
CORRELATION	pRIMP2
BASIS		cc-pvtz
METHOD		rimp2
AUX_BASIS	rimp2-cc-pvtz
SOLVENT_METHOD	PCM
PURECART	11111
SYMMETRY	false
MEM_TOTAL	110000
SCF_CONVERGENCE = 6
THRESH=10
GUI = 2
$end

$solvent
dielectric 4.90
$end
--------------------------------------------------------------

             Standard Nuclear Orientation (Angstroms)
    I     Atom           X                Y                Z
 ----------------------------------------------------------------
    1      C       0.1729040000    -8.5177020000     0.2703580000
    2      C      -0.5246880000    -7.6415750000    -0.5483630000
    3      S       1.1805990000    -7.6386340000     1.4457500000
    4      C      -0.2827270000    -6.2647850000    -0.2599510000
    5      H      -1.2030140000    -7.9660810000    -1.3475590000
    6      C       0.6329720000    -6.0727140000     0.8338680000
    7      C       1.0135800000    -4.7870490000     1.2487010000
    8      C      -0.8450680000    -5.1628010000    -0.9656730000
    9      C      -0.4609460000    -3.8748170000    -0.5533570000
   10      C       0.4535410000    -3.6839520000     0.5434700000
   11      O      -1.7148120000    -5.4997720000    -1.9582760000
   12      O       1.8881930000    -4.4590550000     2.2450530000
   13      C       2.0338480000    -5.3290630000     3.3609890000
   14      H       2.5847880000    -4.7556940000     4.1306670000
   15      H       2.6241180000    -6.2380950000     3.1123800000
   16      H       1.0477480000    -5.6372620000     3.7708950000
   17      C      -2.0138960000    -4.5722610000    -2.9942720000
   18      H      -2.5708530000    -5.1397430000    -3.7637000000
   19      H      -1.0906250000    -4.1531310000    -3.4488150000
   20      H      -2.6577170000    -3.7395310000    -2.6367800000
   21      C       0.6949430000    -2.3066540000     0.8276590000
   22      S      -0.9999930000    -2.3065010000    -1.1747500000
   23      C       0.0000000000    -1.4351850000     0.0000000000
   24      H       1.3703850000    -1.9781380000     1.6275410000
   25      C       0.0000000000     0.0000000000     0.0000000000
   26      S       0.1575770000     0.8909370000     1.5075410000
   27      C       0.4298890000     2.4397200000     0.7188730000
   28      C       0.1577970000     0.8905760000    -1.0678720000
   29      C       0.3969150000     2.2600040000    -0.6864100000
   30      S       0.1183070000     0.6502070000    -2.8055160000
   31      C       0.4170360000     2.3762290000    -3.0545300000
   32      C       0.5376160000     3.0742020000    -1.8625510000
   33      F       0.7649920000     4.3913780000    -1.8190880000
   34      C       0.4966960000     2.8171180000    -4.4560840000
   35      O       0.3708740000     2.0575820000    -5.4065100000
   36      O       0.7238610000     4.1484180000    -4.5692250000
   37      C       0.8149760000     4.6350750000    -5.9162070000
   38      H       0.9992860000     5.7205910000    -5.8330640000
   39      H      -0.1259090000     4.4422260000    -6.4701680000
   40      H       1.6455040000     4.1404650000    -6.4592930000
   41      H       0.5889930000     3.3501820000     1.3064860000
   42      H       0.8593140000    -9.1436230000    -0.3119790000
   43      H      -0.5086660000    -9.1494410000     0.8520970000
   44      H       0.8225040000    -1.4431750000    -0.6998740000
 ----------------------------------------------------------------

   11   -2755.3447340439      7.71e-07  Convergence criterion met
 Total energy in the final basis set =    -2755.3447340439
        RIMP2         total energy =     -2760.4352622806 a.u.

                    Orbital Energies (a.u.)
 --------------------------------------------------------------

 Alpha MOs
 -- Occupied --
-92.0145 -91.9979 -91.9787 -91.9591 -26.3432 -20.6150 -20.5878 -20.5875
-20.5615 -11.4096 -11.3823 -11.3097 -11.3088 -11.3077 -11.3040 -11.2978
-11.2959 -11.2890 -11.2850 -11.2843 -11.2840 -11.2834 -11.2824 -11.2743
-11.2732 -11.2598 -11.2589 -11.2505 -11.2386  -9.0130  -8.9980  -8.9810
 -8.9617  -6.6938  -6.6932  -6.6927  -6.6790  -6.6783  -6.6771  -6.6622
 -6.6612  -6.6600  -6.6429  -6.6420  -6.6410  -1.6603  -1.4674  -1.4110
 -1.4096  -1.3701  -1.2300  -1.2027  -1.1745  -1.1370  -1.1012  -1.0476
 -1.0448  -1.0235  -1.0042  -0.9978  -0.9636  -0.9573  -0.9490  -0.9418
 -0.8941  -0.8706  -0.8647  -0.8153  -0.7926  -0.7900  -0.7852  -0.7691
 -0.7578  -0.7362  -0.7252  -0.7090  -0.6993  -0.6953  -0.6849  -0.6809
 -0.6740  -0.6649  -0.6560  -0.6490  -0.6359  -0.6315  -0.6208  -0.6156
 -0.6110  -0.5993  -0.5934  -0.5764  -0.5710  -0.5650  -0.5591  -0.5565
 -0.5508  -0.5317  -0.5302  -0.5257  -0.5141  -0.5100  -0.5078  -0.5012
 -0.4859  -0.4801  -0.4772  -0.4739  -0.4723  -0.4662  -0.4609  -0.4467
 -0.4303  -0.3964  -0.3854  -0.3709  -0.3500  -0.2993  -0.2891  -0.2193

          Ground-State Mulliken Net Atomic Charges

     Atom                 Charge (a.u.)
  ----------------------------------------
      1 C                    -0.070434
      2 C                    -0.254598
      3 S                    -0.133624
      4 C                    -0.046082
      5 H                     0.194264
      6 C                    -0.051514
      7 C                     0.221946
      8 C                     0.232325
      9 C                    -0.079829
     10 C                    -0.053981
     11 O                    -0.334773
     12 O                    -0.343871
     13 C                    -0.082708
     14 H                     0.120008
     15 H                     0.092261
     16 H                     0.092842
     17 C                    -0.088033
     18 H                     0.123612
     19 H                     0.093723
     20 H                     0.090530
     21 C                    -0.267319
     22 S                    -0.076614
     23 C                     0.068123
     24 H                     0.206273
     25 C                    -0.028700
     26 S                     0.083963
     27 C                    -0.199917
     28 C                    -0.017245
     29 C                    -0.110760
     30 S                    -0.000446
     31 C                    -0.156920
     32 C                     0.398380
     33 F                    -0.206763
     34 C                     0.445234
     35 O                    -0.460622
     36 O                    -0.300643
     37 C                    -0.058683
     38 H                     0.121454
     39 H                     0.095183
     40 H                     0.095062
     41 H                     0.216678
     42 H                     0.118160
     43 H                     0.115667
     44 H                     0.198390
  ----------------------------------------
  Sum of atomic charges =     0.000000

                    Cartesian Multipole Moments
 -----------------------------------------------------------------
    Charge (ESU x 10^10)
                 0.0000
    Dipole Moment (Debye)
         X       0.7649      Y       2.0554      Z       2.4765
       Tot       3.3080
    Quadrupole Moments (Debye-Ang)
        XX    -199.0332     XY       5.1831     YY    -172.5054
        XZ       5.0859     YZ      -4.5014     ZZ    -190.2388

 Total job time:  364.84s(wall), 10942.91s(cpu)
        *  Thank you very much for using Q-Chem.  Have a nice day.  *
