 Q-Chem 5.4, Q-Chem, Inc., Pleasanton, CA (2021)
 Q-Chem 5.4.0 for Intel X86 EM64T Linux

User input:
--------------------------------------------------------------
$molecule
0 1
C	-0.095966	-8.517702	0.306235
C	0.082807	-7.641575	-0.754415
S	-0.348635	-7.638634	1.833702
C	0.017401	-6.264785	-0.383675
H	0.259008	-7.966081	-1.787757
C	-0.231913	-6.072714	1.020885
C	-0.305044	-4.787049	1.579097
C	0.196549	-5.162801	-1.268082
C	0.127606	-3.874817	-0.708796
C	-0.124792	-3.683952	0.696769
O	0.397867	-5.499772	-2.572378
O	-0.506103	-4.459055	2.889532
C	-1.267335	-5.329063	3.718420
H	-1.502804	-4.755694	4.635204
H	-0.697471	-6.238095	4.010790
H	-2.215194	-5.637262	3.226506
C	0.999238	-4.572261	-3.467415
H	1.230649	-5.139743	-4.388648
H	1.940905	-4.153131	-3.052323
H	0.311543	-3.739531	-3.730819
C	-0.187323	-2.306654	1.064366
S	0.257128	-2.306501	-1.521154
C	0.000000	-1.435185	0.000000
H	-0.365903	-1.978138	2.095939
C	0.000000	0.000000	0.000000
S	0.452792	0.783312	1.507541
C	1.238397	2.145556	0.718873
C	0.452875	0.782898	-1.067872
C	1.145945	1.987956	-0.686410
S	0.333556	0.570531	-2.805516
C	1.204604	2.090290	-3.054530
C	1.556633	2.704929	-1.862551
F	2.220797	3.864903	-1.819088
C	1.430252	2.477345	-4.456084
O	1.052242	1.806648	-5.406510
O	2.099050	3.650663	-4.569225
C	2.351116	4.076808	-5.916207
H	2.895579	5.033821	-5.833064
H	1.401015	4.217390	-6.470168
H	2.962391	3.327969	-6.459293
H	1.699302	2.946693	1.306486
H	0.791346	-9.143623	0.457736
H	-0.979708	-9.149441	0.158056
H	1.064830	-1.443175	0.180205
$end

$rem
JOBTYPE		SP
EXCHANGE	HF
CORRELATION	pRIMP2
BASIS		cc-pvtz
METHOD		rimp2
AUX_BASIS	rimp2-cc-pvtz
SOLVENT_METHOD	PCM
PURECART	11111
SYMMETRY	false
MEM_TOTAL	110000
SCF_CONVERGENCE = 6
THRESH=10
GUI = 2
$end

$solvent
dielectric 4.90
$end
--------------------------------------------------------------

             Standard Nuclear Orientation (Angstroms)
    I     Atom           X                Y                Z
 ----------------------------------------------------------------
    1      C      -0.0959660000    -8.5177020000     0.3062350000
    2      C       0.0828070000    -7.6415750000    -0.7544150000
    3      S      -0.3486350000    -7.6386340000     1.8337020000
    4      C       0.0174010000    -6.2647850000    -0.3836750000
    5      H       0.2590080000    -7.9660810000    -1.7877570000
    6      C      -0.2319130000    -6.0727140000     1.0208850000
    7      C      -0.3050440000    -4.7870490000     1.5790970000
    8      C       0.1965490000    -5.1628010000    -1.2680820000
    9      C       0.1276060000    -3.8748170000    -0.7087960000
   10      C      -0.1247920000    -3.6839520000     0.6967690000
   11      O       0.3978670000    -5.4997720000    -2.5723780000
   12      O      -0.5061030000    -4.4590550000     2.8895320000
   13      C      -1.2673350000    -5.3290630000     3.7184200000
   14      H      -1.5028040000    -4.7556940000     4.6352040000
   15      H      -0.6974710000    -6.2380950000     4.0107900000
   16      H      -2.2151940000    -5.6372620000     3.2265060000
   17      C       0.9992380000    -4.5722610000    -3.4674150000
   18      H       1.2306490000    -5.1397430000    -4.3886480000
   19      H       1.9409050000    -4.1531310000    -3.0523230000
   20      H       0.3115430000    -3.7395310000    -3.7308190000
   21      C      -0.1873230000    -2.3066540000     1.0643660000
   22      S       0.2571280000    -2.3065010000    -1.5211540000
   23      C       0.0000000000    -1.4351850000     0.0000000000
   24      H      -0.3659030000    -1.9781380000     2.0959390000
   25      C       0.0000000000     0.0000000000     0.0000000000
   26      S       0.4527920000     0.7833120000     1.5075410000
   27      C       1.2383970000     2.1455560000     0.7188730000
   28      C       0.4528750000     0.7828980000    -1.0678720000
   29      C       1.1459450000     1.9879560000    -0.6864100000
   30      S       0.3335560000     0.5705310000    -2.8055160000
   31      C       1.2046040000     2.0902900000    -3.0545300000
   32      C       1.5566330000     2.7049290000    -1.8625510000
   33      F       2.2207970000     3.8649030000    -1.8190880000
   34      C       1.4302520000     2.4773450000    -4.4560840000
   35      O       1.0522420000     1.8066480000    -5.4065100000
   36      O       2.0990500000     3.6506630000    -4.5692250000
   37      C       2.3511160000     4.0768080000    -5.9162070000
   38      H       2.8955790000     5.0338210000    -5.8330640000
   39      H       1.4010150000     4.2173900000    -6.4701680000
   40      H       2.9623910000     3.3279690000    -6.4592930000
   41      H       1.6993020000     2.9466930000     1.3064860000
   42      H       0.7913460000    -9.1436230000     0.4577360000
   43      H      -0.9797080000    -9.1494410000     0.1580560000
   44      H       1.0648300000    -1.4431750000     0.1802050000
 ----------------------------------------------------------------

   11   -2755.3270601612      8.16e-07  Convergence criterion met
 Total energy in the final basis set =    -2755.3270601612
        RIMP2         total energy =     -2760.4227775908 a.u.

                    Orbital Energies (a.u.)
 --------------------------------------------------------------

 Alpha MOs
 -- Occupied --
-92.0116 -91.9951 -91.9783 -91.9597 -26.3423 -20.6148 -20.5881 -20.5879
-20.5614 -11.4093 -11.3808 -11.3102 -11.3097 -11.3066 -11.3050 -11.2974
-11.2938 -11.2888 -11.2850 -11.2844 -11.2835 -11.2835 -11.2832 -11.2750
-11.2708 -11.2607 -11.2595 -11.2513 -11.2406  -9.0108  -8.9955  -8.9808
 -8.9623  -6.6917  -6.6910  -6.6905  -6.6765  -6.6758  -6.6746  -6.6619
 -6.6610  -6.6597  -6.6435  -6.6426  -6.6416  -1.6595  -1.4673  -1.4115
 -1.4098  -1.3700  -1.2328  -1.2017  -1.1753  -1.1382  -1.1004  -1.0487
 -1.0443  -1.0249  -1.0039  -0.9972  -0.9642  -0.9564  -0.9497  -0.9421
 -0.8945  -0.8689  -0.8639  -0.8160  -0.7921  -0.7902  -0.7840  -0.7698
 -0.7564  -0.7375  -0.7245  -0.7122  -0.6966  -0.6930  -0.6847  -0.6816
 -0.6738  -0.6649  -0.6563  -0.6493  -0.6377  -0.6310  -0.6215  -0.6159
 -0.6111  -0.6000  -0.5936  -0.5774  -0.5707  -0.5662  -0.5601  -0.5569
 -0.5479  -0.5334  -0.5309  -0.5262  -0.5160  -0.5121  -0.5082  -0.5010
 -0.4843  -0.4791  -0.4774  -0.4732  -0.4700  -0.4654  -0.4580  -0.4478
 -0.4315  -0.3962  -0.3828  -0.3718  -0.3516  -0.3001  -0.2864  -0.2178

          Ground-State Mulliken Net Atomic Charges

     Atom                 Charge (a.u.)
  ----------------------------------------
      1 C                    -0.070818
      2 C                    -0.249089
      3 S                    -0.132565
      4 C                    -0.051138
      5 H                     0.195024
      6 C                    -0.048813
      7 C                     0.217121
      8 C                     0.231513
      9 C                    -0.071878
     10 C                    -0.023326
     11 O                    -0.334131
     12 O                    -0.343839
     13 C                    -0.082747
     14 H                     0.120056
     15 H                     0.092057
     16 H                     0.093161
     17 C                    -0.089250
     18 H                     0.124708
     19 H                     0.092987
     20 H                     0.092095
     21 C                    -0.328886
     22 S                    -0.105908
     23 C                     0.130379
     24 H                     0.198936
     25 C                     0.021777
     26 S                     0.073795
     27 C                    -0.213810
     28 C                    -0.085909
     29 C                    -0.089617
     30 S                     0.005930
     31 C                    -0.160962
     32 C                     0.404708
     33 F                    -0.207721
     34 C                     0.444005
     35 O                    -0.460093
     36 O                    -0.300657
     37 C                    -0.058624
     38 H                     0.121454
     39 H                     0.095196
     40 H                     0.094984
     41 H                     0.217093
     42 H                     0.118869
     43 H                     0.116584
     44 H                     0.207349
  ----------------------------------------
  Sum of atomic charges =     0.000000

                    Cartesian Multipole Moments
 -----------------------------------------------------------------
    Charge (ESU x 10^10)
                 0.0000
    Dipole Moment (Debye)
         X       1.9477      Y       1.2795      Z       2.7171
       Tot       3.5796
    Quadrupole Moments (Debye-Ang)
        XX    -193.6840     XY       5.8988     YY    -173.0760
        XZ     -11.8124     YZ      -2.1658     ZZ    -191.9162

 Total job time:  344.32s(wall), 10796.95s(cpu)
        *  Thank you very much for using Q-Chem.  Have a nice day.  *
