 Q-Chem 5.4, Q-Chem, Inc., Pleasanton, CA (2021)
 Q-Chem 5.4.0 for Intel X86 EM64T Linux

User input:
--------------------------------------------------------------
$molecule
0 1
C	-0.318247	-8.517702	-0.041330
C	0.757333	-7.641575	-0.049453
S	-1.866383	-7.638634	-0.024919
C	0.380867	-6.264785	-0.049488
H	1.805573	-7.966081	-0.055368
C	-1.045647	-6.072714	-0.051115
C	-1.608077	-4.787049	-0.026203
C	1.282948	-5.162801	-0.026637
C	0.720187	-3.874817	0.002586
C	-0.707853	-3.683952	-0.001903
O	2.602386	-5.499772	-0.054867
O	-2.933517	-4.459055	0.003348
C	-3.881999	-5.329063	-0.602384
H	-4.825744	-4.755694	-0.675079
H	-4.070972	-6.238095	0.009592
H	-3.562152	-5.637262	-1.621263
C	3.588253	-4.572261	0.381947
H	4.535674	-5.139743	0.449872
H	3.342986	-4.153131	1.381388
H	3.728239	-3.739531	-0.341040
C	-1.080725	-2.306654	0.000348
S	1.542694	-2.306501	-0.010924
C	-0.000000	-1.435185	-0.000000
H	-2.127635	-1.978138	0.003612
C	0.000000	0.000000	0.000000
S	0.079327	0.901280	1.507541
C	0.215617	2.467903	0.718873
C	0.079577	0.900940	-1.067872
C	0.198433	2.285998	-0.686410
S	0.061187	0.658044	-2.805516
C	0.208347	2.403534	-3.054530
C	0.267636	3.109360	-1.862551
F	0.379347	4.441341	-1.819088
C	0.249278	2.849688	-4.456084
O	0.190132	2.082076	-5.406510
O	0.359548	4.195721	-4.569225
C	0.407901	4.688467	-5.916207
H	0.496901	5.785916	-5.833064
H	-0.512596	4.414348	-6.470168
H	1.278377	4.268124	-6.459293
H	0.294764	3.388767	1.306486
H	-0.313367	-9.143623	0.858809
H	-0.325780	-9.149441	-0.937378
H	0.007439	-1.443175	1.079945
$end

$rem
JOBTYPE		SP
EXCHANGE	HF
CORRELATION	pRIMP2
BASIS		cc-pvtz
METHOD		rimp2
AUX_BASIS	rimp2-cc-pvtz
SOLVENT_METHOD	PCM
PURECART	11111
SYMMETRY	false
MEM_TOTAL	110000
SCF_CONVERGENCE = 6
THRESH=10
GUI = 2
$end

$solvent
dielectric 4.90
$end
--------------------------------------------------------------

             Standard Nuclear Orientation (Angstroms)
    I     Atom           X                Y                Z
 ----------------------------------------------------------------
    1      C      -0.3182470000    -8.5177020000    -0.0413300000
    2      C       0.7573330000    -7.6415750000    -0.0494530000
    3      S      -1.8663830000    -7.6386340000    -0.0249190000
    4      C       0.3808670000    -6.2647850000    -0.0494880000
    5      H       1.8055730000    -7.9660810000    -0.0553680000
    6      C      -1.0456470000    -6.0727140000    -0.0511150000
    7      C      -1.6080770000    -4.7870490000    -0.0262030000
    8      C       1.2829480000    -5.1628010000    -0.0266370000
    9      C       0.7201870000    -3.8748170000     0.0025860000
   10      C      -0.7078530000    -3.6839520000    -0.0019030000
   11      O       2.6023860000    -5.4997720000    -0.0548670000
   12      O      -2.9335170000    -4.4590550000     0.0033480000
   13      C      -3.8819990000    -5.3290630000    -0.6023840000
   14      H      -4.8257440000    -4.7556940000    -0.6750790000
   15      H      -4.0709720000    -6.2380950000     0.0095920000
   16      H      -3.5621520000    -5.6372620000    -1.6212630000
   17      C       3.5882530000    -4.5722610000     0.3819470000
   18      H       4.5356740000    -5.1397430000     0.4498720000
   19      H       3.3429860000    -4.1531310000     1.3813880000
   20      H       3.7282390000    -3.7395310000    -0.3410400000
   21      C      -1.0807250000    -2.3066540000     0.0003480000
   22      S       1.5426940000    -2.3065010000    -0.0109240000
   23      C       0.0000000000    -1.4351850000     0.0000000000
   24      H      -2.1276350000    -1.9781380000     0.0036120000
   25      C       0.0000000000     0.0000000000     0.0000000000
   26      S       0.0793270000     0.9012800000     1.5075410000
   27      C       0.2156170000     2.4679030000     0.7188730000
   28      C       0.0795770000     0.9009400000    -1.0678720000
   29      C       0.1984330000     2.2859980000    -0.6864100000
   30      S       0.0611870000     0.6580440000    -2.8055160000
   31      C       0.2083470000     2.4035340000    -3.0545300000
   32      C       0.2676360000     3.1093600000    -1.8625510000
   33      F       0.3793470000     4.4413410000    -1.8190880000
   34      C       0.2492780000     2.8496880000    -4.4560840000
   35      O       0.1901320000     2.0820760000    -5.4065100000
   36      O       0.3595480000     4.1957210000    -4.5692250000
   37      C       0.4079010000     4.6884670000    -5.9162070000
   38      H       0.4969010000     5.7859160000    -5.8330640000
   39      H      -0.5125960000     4.4143480000    -6.4701680000
   40      H       1.2783770000     4.2681240000    -6.4592930000
   41      H       0.2947640000     3.3887670000     1.3064860000
   42      H      -0.3133670000    -9.1436230000     0.8588090000
   43      H      -0.3257800000    -9.1494410000    -0.9373780000
   44      H       0.0074390000    -1.4431750000     1.0799450000
 ----------------------------------------------------------------

   11   -2755.3450108885      7.43e-07  Convergence criterion met
 Total energy in the final basis set =    -2755.3450108885
        RIMP2         total energy =     -2760.4316768830 a.u.

                    Orbital Energies (a.u.)
 --------------------------------------------------------------

 Alpha MOs
 -- Occupied --
-92.0180 -91.9982 -91.9764 -91.9576 -26.3435 -20.6150 -20.5869 -20.5862
-20.5615 -11.4095 -11.3825 -11.3118 -11.3087 -11.3062 -11.2997 -11.2985
-11.2980 -11.2889 -11.2852 -11.2841 -11.2825 -11.2824 -11.2789 -11.2721
-11.2719 -11.2576 -11.2565 -11.2491 -11.2356  -9.0165  -8.9983  -8.9786
 -8.9602  -6.6972  -6.6967  -6.6961  -6.6793  -6.6786  -6.6775  -6.6597
 -6.6589  -6.6576  -6.6415  -6.6405  -6.6395  -1.6606  -1.4674  -1.4098
 -1.4085  -1.3701  -1.2283  -1.2023  -1.1730  -1.1376  -1.0992  -1.0455
 -1.0440  -1.0247  -1.0032  -0.9964  -0.9629  -0.9584  -0.9479  -0.9405
 -0.8927  -0.8686  -0.8664  -0.8140  -0.7979  -0.7888  -0.7843  -0.7674
 -0.7567  -0.7375  -0.7255  -0.7170  -0.6969  -0.6861  -0.6846  -0.6793
 -0.6740  -0.6602  -0.6557  -0.6482  -0.6335  -0.6298  -0.6195  -0.6148
 -0.6109  -0.5991  -0.5914  -0.5767  -0.5714  -0.5639  -0.5585  -0.5545
 -0.5487  -0.5321  -0.5311  -0.5246  -0.5126  -0.5075  -0.5069  -0.5011
 -0.4855  -0.4817  -0.4764  -0.4739  -0.4707  -0.4677  -0.4607  -0.4460
 -0.4224  -0.4000  -0.3846  -0.3697  -0.3508  -0.3016  -0.2889  -0.2205

          Ground-State Mulliken Net Atomic Charges

     Atom                 Charge (a.u.)
  ----------------------------------------
      1 C                    -0.069956
      2 C                    -0.262751
      3 S                    -0.136795
      4 C                    -0.042949
      5 H                     0.193077
      6 C                    -0.053513
      7 C                     0.228824
      8 C                     0.223068
      9 C                    -0.077301
     10 C                    -0.061471
     11 O                    -0.335004
     12 O                    -0.343352
     13 C                    -0.082534
     14 H                     0.119914
     15 H                     0.091705
     16 H                     0.093149
     17 C                    -0.086247
     18 H                     0.122835
     19 H                     0.091432
     20 H                     0.090760
     21 C                    -0.243572
     22 S                    -0.072904
     23 C                     0.075855
     24 H                     0.204451
     25 C                    -0.109754
     26 S                     0.093801
     27 C                    -0.189017
     28 C                     0.037245
     29 C                    -0.113987
     30 S                     0.009762
     31 C                    -0.158481
     32 C                     0.401352
     33 F                    -0.207158
     34 C                     0.444230
     35 O                    -0.460556
     36 O                    -0.300591
     37 C                    -0.058637
     38 H                     0.121341
     39 H                     0.095180
     40 H                     0.095193
     41 H                     0.219274
     42 H                     0.116665
     43 H                     0.114600
     44 H                     0.182814
  ----------------------------------------
  Sum of atomic charges =     0.000000

                    Cartesian Multipole Moments
 -----------------------------------------------------------------
    Charge (ESU x 10^10)
                -0.0000
    Dipole Moment (Debye)
         X       0.3400      Y       3.2675      Z       3.5038
       Tot       4.8030
    Quadrupole Moments (Debye-Ang)
        XX    -185.3859     XY      -2.2594     YY    -176.7167
        XZ       5.0889     YZ      -7.3088     ZZ    -204.1580

 Total job time:  328.97s(wall), 10538.08s(cpu)
        *  Thank you very much for using Q-Chem.  Have a nice day.  *
