 Q-Chem 5.4, Q-Chem, Inc., Pleasanton, CA (2021)
 Q-Chem 5.4.0 for Intel X86 EM64T Linux

User input:
--------------------------------------------------------------
$molecule
0 1
C	0.147685	-8.517702	-0.284919
C	-0.212552	-7.641575	0.728574
S	0.661757	-7.638634	-1.745304
C	-0.083761	-6.264785	0.374824
H	-0.565513	-7.966081	1.715621
C	0.405665	-6.072714	-0.965104
C	0.574617	-4.787049	-1.502136
C	-0.413763	-5.162801	1.214687
C	-0.248748	-3.874817	0.675870
C	0.243888	-3.683952	-0.664513
O	-0.838511	-5.499772	2.464209
O	1.000176	-4.459055	-2.757750
C	1.893778	-5.329063	-3.441858
H	2.284868	-4.755694	-4.303826
H	1.383341	-6.238095	-3.828743
H	2.741817	-5.637262	-2.792824
C	-1.586168	-4.572261	3.241222
H	-1.974033	-5.139743	4.108274
H	-2.441448	-4.153131	2.668916
H	-0.954660	-3.739531	3.620041
C	0.369302	-2.306654	-1.015668
S	-0.517367	-2.306501	1.453394
C	0.000000	-1.435185	0.000000
H	0.724300	-1.978138	-2.000559
C	0.000000	0.000000	0.000000
S	0.452792	0.783312	1.507541
C	1.238397	2.145556	0.718873
C	0.452875	0.782898	-1.067872
C	1.145945	1.987956	-0.686410
S	0.333556	0.570531	-2.805516
C	1.204604	2.090290	-3.054530
C	1.556633	2.704929	-1.862551
F	2.220797	3.864903	-1.819088
C	1.430252	2.477345	-4.456084
O	1.052242	1.806648	-5.406510
O	2.099050	3.650663	-4.569225
C	2.351116	4.076808	-5.916207
H	2.895579	5.033821	-5.833064
H	1.401015	4.217390	-6.470168
H	2.962391	3.327969	-6.459293
H	1.699302	2.946693	1.306486
H	-0.699838	-9.143623	-0.588198
H	0.992270	-9.149441	0.014470
H	-1.017360	-1.443175	-0.362373
$end

$rem
JOBTYPE		SP
EXCHANGE	HF
CORRELATION	pRIMP2
BASIS		cc-pvtz
METHOD		rimp2
AUX_BASIS	rimp2-cc-pvtz
SOLVENT_METHOD	PCM
PURECART	11111
SYMMETRY	false
MEM_TOTAL	110000
SCF_CONVERGENCE = 6
THRESH=10
GUI = 2
$end

$solvent
dielectric 4.90
$end
--------------------------------------------------------------

             Standard Nuclear Orientation (Angstroms)
    I     Atom           X                Y                Z
 ----------------------------------------------------------------
    1      C       0.1476850000    -8.5177020000    -0.2849190000
    2      C      -0.2125520000    -7.6415750000     0.7285740000
    3      S       0.6617570000    -7.6386340000    -1.7453040000
    4      C      -0.0837610000    -6.2647850000     0.3748240000
    5      H      -0.5655130000    -7.9660810000     1.7156210000
    6      C       0.4056650000    -6.0727140000    -0.9651040000
    7      C       0.5746170000    -4.7870490000    -1.5021360000
    8      C      -0.4137630000    -5.1628010000     1.2146870000
    9      C      -0.2487480000    -3.8748170000     0.6758700000
   10      C       0.2438880000    -3.6839520000    -0.6645130000
   11      O      -0.8385110000    -5.4997720000     2.4642090000
   12      O       1.0001760000    -4.4590550000    -2.7577500000
   13      C       1.8937780000    -5.3290630000    -3.4418580000
   14      H       2.2848680000    -4.7556940000    -4.3038260000
   15      H       1.3833410000    -6.2380950000    -3.8287430000
   16      H       2.7418170000    -5.6372620000    -2.7928240000
   17      C      -1.5861680000    -4.5722610000     3.2412220000
   18      H      -1.9740330000    -5.1397430000     4.1082740000
   19      H      -2.4414480000    -4.1531310000     2.6689160000
   20      H      -0.9546600000    -3.7395310000     3.6200410000
   21      C       0.3693020000    -2.3066540000    -1.0156680000
   22      S      -0.5173670000    -2.3065010000     1.4533940000
   23      C       0.0000000000    -1.4351850000     0.0000000000
   24      H       0.7243000000    -1.9781380000    -2.0005590000
   25      C       0.0000000000     0.0000000000     0.0000000000
   26      S       0.4527920000     0.7833120000     1.5075410000
   27      C       1.2383970000     2.1455560000     0.7188730000
   28      C       0.4528750000     0.7828980000    -1.0678720000
   29      C       1.1459450000     1.9879560000    -0.6864100000
   30      S       0.3335560000     0.5705310000    -2.8055160000
   31      C       1.2046040000     2.0902900000    -3.0545300000
   32      C       1.5566330000     2.7049290000    -1.8625510000
   33      F       2.2207970000     3.8649030000    -1.8190880000
   34      C       1.4302520000     2.4773450000    -4.4560840000
   35      O       1.0522420000     1.8066480000    -5.4065100000
   36      O       2.0990500000     3.6506630000    -4.5692250000
   37      C       2.3511160000     4.0768080000    -5.9162070000
   38      H       2.8955790000     5.0338210000    -5.8330640000
   39      H       1.4010150000     4.2173900000    -6.4701680000
   40      H       2.9623910000     3.3279690000    -6.4592930000
   41      H       1.6993020000     2.9466930000     1.3064860000
   42      H      -0.6998380000    -9.1436230000    -0.5881980000
   43      H       0.9922700000    -9.1494410000     0.0144700000
   44      H      -1.0173600000    -1.4431750000    -0.3623730000
 ----------------------------------------------------------------

   11   -2755.3224612132      8.10e-07  Convergence criterion met
 Total energy in the final basis set =    -2755.3224612132
        RIMP2         total energy =     -2760.4190617828 a.u.

                    Orbital Energies (a.u.)
 --------------------------------------------------------------

 Alpha MOs
 -- Occupied --
-92.0128 -92.0003 -91.9811 -91.9579 -26.3440 -20.6154 -20.5879 -20.5870
-20.5619 -11.4101 -11.3833 -11.3094 -11.3087 -11.3083 -11.3017 -11.2996
-11.2986 -11.2892 -11.2858 -11.2853 -11.2847 -11.2823 -11.2801 -11.2733
-11.2724 -11.2584 -11.2578 -11.2496 -11.2367  -9.0118  -9.0004  -8.9832
 -8.9605  -6.6926  -6.6919  -6.6914  -6.6814  -6.6807  -6.6796  -6.6644
 -6.6635  -6.6623  -6.6418  -6.6408  -6.6398  -1.6610  -1.4679  -1.4112
 -1.4088  -1.3706  -1.2316  -1.2027  -1.1738  -1.1380  -1.1005  -1.0473
 -1.0460  -1.0243  -1.0036  -0.9981  -0.9632  -0.9595  -0.9489  -0.9412
 -0.8945  -0.8708  -0.8641  -0.8101  -0.8009  -0.7905  -0.7837  -0.7675
 -0.7577  -0.7370  -0.7259  -0.7112  -0.6991  -0.6936  -0.6852  -0.6812
 -0.6744  -0.6634  -0.6567  -0.6488  -0.6385  -0.6310  -0.6199  -0.6149
 -0.6122  -0.5993  -0.5934  -0.5778  -0.5710  -0.5657  -0.5591  -0.5558
 -0.5426  -0.5344  -0.5309  -0.5274  -0.5129  -0.5097  -0.5080  -0.5014
 -0.4852  -0.4822  -0.4772  -0.4742  -0.4700  -0.4655  -0.4603  -0.4469
 -0.4315  -0.3946  -0.3855  -0.3704  -0.3504  -0.3003  -0.2885  -0.2165

          Ground-State Mulliken Net Atomic Charges

     Atom                 Charge (a.u.)
  ----------------------------------------
      1 C                    -0.070148
      2 C                    -0.261779
      3 S                    -0.136054
      4 C                    -0.047720
      5 H                     0.193149
      6 C                    -0.052268
      7 C                     0.224665
      8 C                     0.231588
      9 C                    -0.072605
     10 C                    -0.040894
     11 O                    -0.334289
     12 O                    -0.343542
     13 C                    -0.083151
     14 H                     0.120914
     15 H                     0.092360
     16 H                     0.092735
     17 C                    -0.088172
     18 H                     0.124638
     19 H                     0.092903
     20 H                     0.089833
     21 C                    -0.305347
     22 S                    -0.098571
     23 C                     0.108857
     24 H                     0.202484
     25 C                    -0.038337
     26 S                     0.096344
     27 C                    -0.207682
     28 C                    -0.047259
     29 C                    -0.085296
     30 S                     0.014837
     31 C                    -0.162259
     32 C                     0.405031
     33 F                    -0.206196
     34 C                     0.444283
     35 O                    -0.460843
     36 O                    -0.300818
     37 C                    -0.058421
     38 H                     0.121627
     39 H                     0.095216
     40 H                     0.095171
     41 H                     0.216688
     42 H                     0.117193
     43 H                     0.114843
     44 H                     0.206291
  ----------------------------------------
  Sum of atomic charges =     0.000000

                    Cartesian Multipole Moments
 -----------------------------------------------------------------
    Charge (ESU x 10^10)
                -0.0000
    Dipole Moment (Debye)
         X       0.7220      Y       2.3603      Z       2.8419
       Tot       3.7641
    Quadrupole Moments (Debye-Ang)
        XX    -190.5528     XY       8.3079     YY    -178.8280
        XZ     -12.9579     YZ     -10.4406     ZZ    -194.8476

 Total job time:  349.11s(wall), 10975.60s(cpu)
        *  Thank you very much for using Q-Chem.  Have a nice day.  *
