 Q-Chem 5.4, Q-Chem, Inc., Pleasanton, CA (2021)
 Q-Chem 5.4.0 for Intel X86 EM64T Linux

User input:
--------------------------------------------------------------
$molecule
0 1
C	0.254945	-8.517702	0.194917
C	-0.680596	-7.641575	-0.335839
S	1.603876	-7.638634	0.954772
C	-0.354585	-6.264785	-0.147576
H	-1.591356	-7.966081	-0.854836
C	0.879999	-6.072714	0.567090
C	1.379534	-4.787049	0.826731
C	-1.124384	-5.162801	-0.618405
C	-0.622407	-3.874817	-0.362333
C	0.612067	-3.683952	0.355575
O	-2.281166	-5.499772	-1.253677
O	2.542174	-4.459055	1.463859
C	3.060718	-5.329063	2.462679
H	3.841678	-4.755694	2.997507
H	3.530361	-6.238095	2.027179
H	2.274283	-5.637262	3.185132
C	-2.916545	-4.572261	-2.124902
H	-3.703073	-5.139743	-2.657438
H	-2.204417	-4.153131	-2.867810
H	-3.399269	-3.739531	-1.568770
C	0.936109	-2.306654	0.540061
S	-1.341474	-2.306501	-0.761887
C	-0.000000	-1.435185	-0.000000
H	1.844392	-1.978138	1.060690
C	0.000000	0.000000	0.000000
S	0.783786	0.451972	1.507541
C	2.145261	1.238908	0.718873
C	0.783650	0.451572	-1.067872
C	1.986396	1.148648	-0.686410
S	0.574133	0.327317	-2.805516
C	2.088363	1.207943	-3.054530
C	2.700548	1.564221	-1.862551
F	3.855718	2.236706	-1.819088
C	2.477307	1.430318	-4.456084
O	1.814592	1.038482	-5.406510
O	3.643162	2.112042	-4.569225
C	4.074530	2.355061	-5.916207
H	5.024556	2.911627	-5.833064
H	3.322010	2.951860	-6.470168
H	4.229490	1.400910	-6.459293
H	2.944986	1.702260	1.306486
H	0.700788	-9.143623	-0.587067
H	-0.186556	-9.149441	0.974683
H	0.533530	-1.443175	-0.938979
$end

$rem
JOBTYPE		SP
EXCHANGE	HF
CORRELATION	pRIMP2
BASIS		cc-pvtz
METHOD		rimp2
AUX_BASIS	rimp2-cc-pvtz
SOLVENT_METHOD	PCM
PURECART	11111
SYMMETRY	false
MEM_TOTAL	110000
SCF_CONVERGENCE = 6
THRESH=10
GUI = 2
$end

$solvent
dielectric 4.90
$end
--------------------------------------------------------------

             Standard Nuclear Orientation (Angstroms)
    I     Atom           X                Y                Z
 ----------------------------------------------------------------
    1      C       0.2549450000    -8.5177020000     0.1949170000
    2      C      -0.6805960000    -7.6415750000    -0.3358390000
    3      S       1.6038760000    -7.6386340000     0.9547720000
    4      C      -0.3545850000    -6.2647850000    -0.1475760000
    5      H      -1.5913560000    -7.9660810000    -0.8548360000
    6      C       0.8799990000    -6.0727140000     0.5670900000
    7      C       1.3795340000    -4.7870490000     0.8267310000
    8      C      -1.1243840000    -5.1628010000    -0.6184050000
    9      C      -0.6224070000    -3.8748170000    -0.3623330000
   10      C       0.6120670000    -3.6839520000     0.3555750000
   11      O      -2.2811660000    -5.4997720000    -1.2536770000
   12      O       2.5421740000    -4.4590550000     1.4638590000
   13      C       3.0607180000    -5.3290630000     2.4626790000
   14      H       3.8416780000    -4.7556940000     2.9975070000
   15      H       3.5303610000    -6.2380950000     2.0271790000
   16      H       2.2742830000    -5.6372620000     3.1851320000
   17      C      -2.9165450000    -4.5722610000    -2.1249020000
   18      H      -3.7030730000    -5.1397430000    -2.6574380000
   19      H      -2.2044170000    -4.1531310000    -2.8678100000
   20      H      -3.3992690000    -3.7395310000    -1.5687700000
   21      C       0.9361090000    -2.3066540000     0.5400610000
   22      S      -1.3414740000    -2.3065010000    -0.7618870000
   23      C       0.0000000000    -1.4351850000     0.0000000000
   24      H       1.8443920000    -1.9781380000     1.0606900000
   25      C       0.0000000000     0.0000000000     0.0000000000
   26      S       0.7837860000     0.4519720000     1.5075410000
   27      C       2.1452610000     1.2389080000     0.7188730000
   28      C       0.7836500000     0.4515720000    -1.0678720000
   29      C       1.9863960000     1.1486480000    -0.6864100000
   30      S       0.5741330000     0.3273170000    -2.8055160000
   31      C       2.0883630000     1.2079430000    -3.0545300000
   32      C       2.7005480000     1.5642210000    -1.8625510000
   33      F       3.8557180000     2.2367060000    -1.8190880000
   34      C       2.4773070000     1.4303180000    -4.4560840000
   35      O       1.8145920000     1.0384820000    -5.4065100000
   36      O       3.6431620000     2.1120420000    -4.5692250000
   37      C       4.0745300000     2.3550610000    -5.9162070000
   38      H       5.0245560000     2.9116270000    -5.8330640000
   39      H       3.3220100000     2.9518600000    -6.4701680000
   40      H       4.2294900000     1.4009100000    -6.4592930000
   41      H       2.9449860000     1.7022600000     1.3064860000
   42      H       0.7007880000    -9.1436230000    -0.5870670000
   43      H      -0.1865560000    -9.1494410000     0.9746830000
   44      H       0.5335300000    -1.4431750000    -0.9389790000
 ----------------------------------------------------------------

   11   -2755.2663223374      8.35e-07  Convergence criterion met
 Total energy in the final basis set =    -2755.2663223374
        RIMP2         total energy =     -2760.3727115645 a.u.

                    Orbital Energies (a.u.)
 --------------------------------------------------------------

 Alpha MOs
 -- Occupied --
-92.0152 -92.0146 -91.9672 -91.9554 -26.3486 -20.6168 -20.5864 -20.5827
-20.5633 -11.4122 -11.3903 -11.3356 -11.3214 -11.3074 -11.3008 -11.3004
-11.2904 -11.2902 -11.2824 -11.2813 -11.2787 -11.2728 -11.2718 -11.2707
-11.2689 -11.2549 -11.2520 -11.2466 -11.2295  -9.0146  -9.0142  -8.9699
 -8.9580  -6.6952  -6.6950  -6.6943  -6.6943  -6.6942  -6.6933  -6.6510
 -6.6501  -6.6489  -6.6393  -6.6384  -6.6373  -1.6655  -1.4694  -1.4085
 -1.4058  -1.3721  -1.2468  -1.1992  -1.1714  -1.1426  -1.0997  -1.0522
 -1.0423  -1.0295  -1.0002  -0.9937  -0.9679  -0.9571  -0.9481  -0.9413
 -0.8899  -0.8756  -0.8571  -0.8216  -0.7977  -0.7875  -0.7812  -0.7661
 -0.7599  -0.7341  -0.7301  -0.7155  -0.7033  -0.6921  -0.6869  -0.6795
 -0.6759  -0.6697  -0.6534  -0.6465  -0.6372  -0.6295  -0.6171  -0.6150
 -0.6093  -0.6037  -0.5928  -0.5785  -0.5700  -0.5617  -0.5576  -0.5546
 -0.5487  -0.5328  -0.5270  -0.5186  -0.5143  -0.5097  -0.5056  -0.4976
 -0.4872  -0.4844  -0.4771  -0.4744  -0.4695  -0.4637  -0.4548  -0.4424
 -0.4239  -0.3962  -0.3781  -0.3688  -0.3458  -0.3157  -0.2851  -0.2135

          Ground-State Mulliken Net Atomic Charges

     Atom                 Charge (a.u.)
  ----------------------------------------
      1 C                    -0.068685
      2 C                    -0.280750
      3 S                    -0.142676
      4 C                    -0.037579
      5 H                     0.190899
      6 C                    -0.054138
      7 C                     0.223817
      8 C                     0.213951
      9 C                    -0.064001
     10 C                    -0.068463
     11 O                    -0.336692
     12 O                    -0.345037
     13 C                    -0.082604
     14 H                     0.118690
     15 H                     0.092329
     16 H                     0.092800
     17 C                    -0.086728
     18 H                     0.121695
     19 H                     0.091264
     20 H                     0.090016
     21 C                    -0.253720
     22 S                    -0.107446
     23 C                     0.060343
     24 H                     0.204115
     25 C                    -0.177351
     26 S                     0.105567
     27 C                    -0.132462
     28 C                     0.066029
     29 C                    -0.111719
     30 S                     0.057438
     31 C                    -0.152727
     32 C                     0.399925
     33 F                    -0.202627
     34 C                     0.448523
     35 O                    -0.461767
     36 O                    -0.301316
     37 C                    -0.058014
     38 H                     0.121796
     39 H                     0.095479
     40 H                     0.095614
     41 H                     0.222386
     42 H                     0.114656
     43 H                     0.112134
     44 H                     0.187035
  ----------------------------------------
  Sum of atomic charges =     0.000000

                    Cartesian Multipole Moments
 -----------------------------------------------------------------
    Charge (ESU x 10^10)
                -0.0000
    Dipole Moment (Debye)
         X       4.1244      Y       3.9069      Z       2.0481
       Tot       6.0389
    Quadrupole Moments (Debye-Ang)
        XX    -180.8573     XY      10.5976     YY    -198.0420
        XZ       2.2641     YZ      -2.7175     ZZ    -193.2187

 Total job time:  330.46s(wall), 10683.72s(cpu)
        *  Thank you very much for using Q-Chem.  Have a nice day.  *
