 Q-Chem 5.4, Q-Chem, Inc., Pleasanton, CA (2021)
 Q-Chem 5.4.0 for Intel X86 EM64T Linux

User input:
--------------------------------------------------------------
$molecule
0 1
C	0.123330	-8.517702	0.296276
C	-0.421494	-7.641575	-0.631143
S	0.911611	-7.638634	1.628795
C	-0.233291	-6.264785	-0.305097
H	-0.950737	-7.966081	-1.535988
C	0.478557	-6.072714	0.931114
C	0.781346	-4.787049	1.405737
C	-0.664542	-5.162801	-1.097747
C	-0.357854	-3.874817	-0.624993
C	0.352278	-3.683952	0.613970
O	-1.348709	-5.499772	-2.226300
O	1.469658	-4.459055	2.538827
C	1.419319	-5.329063	3.663102
H	1.828237	-4.755694	4.516756
H	2.043793	-6.238095	3.520769
H	0.377021	-5.637262	3.895546
C	-1.463351	-4.572261	-3.298492
H	-1.878237	-5.139743	-4.152945
H	-0.475176	-4.153131	-3.585804
H	-2.159469	-3.739531	-3.058230
C	0.540664	-2.306654	0.935761
S	-0.780808	-2.306501	-1.330550
C	-0.000000	-1.435185	-0.000000
H	1.066946	-1.978138	1.840780
C	0.000000	0.000000	0.000000
S	0.382799	0.819795	1.507541
C	1.046687	2.245325	0.718873
C	0.382918	0.819389	-1.067872
C	0.968323	2.080267	-0.686410
S	0.282561	0.597432	-2.805516
C	1.017839	2.187324	-3.054530
C	1.314960	2.830306	-1.862551
F	1.875498	4.043751	-1.819088
C	1.208895	2.592573	-4.456084
O	0.890778	1.891482	-5.406510
O	1.772886	3.819715	-4.569225
C	1.986852	4.266207	-5.916207
H	2.445834	5.267032	-5.833064
H	1.028114	4.323448	-6.470168
H	2.661066	3.573494	-6.459293
H	1.436015	3.083584	1.306486
H	0.900433	-9.143623	-0.158021
H	-0.648903	-9.149441	0.750822
H	0.931540	-1.443175	-0.546415
$end

$rem
JOBTYPE		SP
EXCHANGE	HF
CORRELATION	pRIMP2
BASIS		cc-pvtz
METHOD		rimp2
AUX_BASIS	rimp2-cc-pvtz
SOLVENT_METHOD	PCM
PURECART	11111
SYMMETRY	false
MEM_TOTAL	110000
SCF_CONVERGENCE = 6
THRESH=10
GUI = 2
$end

$solvent
dielectric 4.90
$end
--------------------------------------------------------------

             Standard Nuclear Orientation (Angstroms)
    I     Atom           X                Y                Z
 ----------------------------------------------------------------
    1      C       0.1233300000    -8.5177020000     0.2962760000
    2      C      -0.4214940000    -7.6415750000    -0.6311430000
    3      S       0.9116110000    -7.6386340000     1.6287950000
    4      C      -0.2332910000    -6.2647850000    -0.3050970000
    5      H      -0.9507370000    -7.9660810000    -1.5359880000
    6      C       0.4785570000    -6.0727140000     0.9311140000
    7      C       0.7813460000    -4.7870490000     1.4057370000
    8      C      -0.6645420000    -5.1628010000    -1.0977470000
    9      C      -0.3578540000    -3.8748170000    -0.6249930000
   10      C       0.3522780000    -3.6839520000     0.6139700000
   11      O      -1.3487090000    -5.4997720000    -2.2263000000
   12      O       1.4696580000    -4.4590550000     2.5388270000
   13      C       1.4193190000    -5.3290630000     3.6631020000
   14      H       1.8282370000    -4.7556940000     4.5167560000
   15      H       2.0437930000    -6.2380950000     3.5207690000
   16      H       0.3770210000    -5.6372620000     3.8955460000
   17      C      -1.4633510000    -4.5722610000    -3.2984920000
   18      H      -1.8782370000    -5.1397430000    -4.1529450000
   19      H      -0.4751760000    -4.1531310000    -3.5858040000
   20      H      -2.1594690000    -3.7395310000    -3.0582300000
   21      C       0.5406640000    -2.3066540000     0.9357610000
   22      S      -0.7808080000    -2.3065010000    -1.3305500000
   23      C       0.0000000000    -1.4351850000     0.0000000000
   24      H       1.0669460000    -1.9781380000     1.8407800000
   25      C       0.0000000000     0.0000000000     0.0000000000
   26      S       0.3827990000     0.8197950000     1.5075410000
   27      C       1.0466870000     2.2453250000     0.7188730000
   28      C       0.3829180000     0.8193890000    -1.0678720000
   29      C       0.9683230000     2.0802670000    -0.6864100000
   30      S       0.2825610000     0.5974320000    -2.8055160000
   31      C       1.0178390000     2.1873240000    -3.0545300000
   32      C       1.3149600000     2.8303060000    -1.8625510000
   33      F       1.8754980000     4.0437510000    -1.8190880000
   34      C       1.2088950000     2.5925730000    -4.4560840000
   35      O       0.8907780000     1.8914820000    -5.4065100000
   36      O       1.7728860000     3.8197150000    -4.5692250000
   37      C       1.9868520000     4.2662070000    -5.9162070000
   38      H       2.4458340000     5.2670320000    -5.8330640000
   39      H       1.0281140000     4.3234480000    -6.4701680000
   40      H       2.6610660000     3.5734940000    -6.4592930000
   41      H       1.4360150000     3.0835840000     1.3064860000
   42      H       0.9004330000    -9.1436230000    -0.1580210000
   43      H      -0.6489030000    -9.1494410000     0.7508220000
   44      H       0.9315400000    -1.4431750000    -0.5464150000
 ----------------------------------------------------------------

   11   -2755.3332049275      7.86e-07  Convergence criterion met
 Total energy in the final basis set =    -2755.3332049275
        RIMP2         total energy =     -2760.4274990262 a.u.

                    Orbital Energies (a.u.)
 --------------------------------------------------------------

 Alpha MOs
 -- Occupied --
-92.0153 -91.9985 -91.9782 -91.9589 -26.3432 -20.6151 -20.5878 -20.5873
-20.5615 -11.4096 -11.3821 -11.3096 -11.3085 -11.3063 -11.3048 -11.2977
-11.2954 -11.2890 -11.2855 -11.2841 -11.2841 -11.2834 -11.2825 -11.2739
-11.2732 -11.2593 -11.2587 -11.2503 -11.2381  -9.0139  -8.9985  -8.9807
 -8.9615  -6.6947  -6.6941  -6.6936  -6.6795  -6.6788  -6.6776  -6.6618
 -6.6609  -6.6597  -6.6427  -6.6418  -6.6408  -1.6603  -1.4675  -1.4108
 -1.4095  -1.3702  -1.2321  -1.2021  -1.1744  -1.1379  -1.1007  -1.0478
 -1.0450  -1.0243  -1.0036  -0.9975  -0.9642  -0.9569  -0.9491  -0.9420
 -0.8939  -0.8704  -0.8636  -0.8161  -0.7925  -0.7897  -0.7847  -0.7689
 -0.7575  -0.7363  -0.7252  -0.7093  -0.6989  -0.6952  -0.6849  -0.6813
 -0.6740  -0.6656  -0.6559  -0.6489  -0.6365  -0.6313  -0.6206  -0.6156
 -0.6110  -0.5998  -0.5938  -0.5760  -0.5711  -0.5652  -0.5592  -0.5558
 -0.5509  -0.5320  -0.5296  -0.5261  -0.5145  -0.5107  -0.5079  -0.5006
 -0.4854  -0.4800  -0.4773  -0.4736  -0.4717  -0.4657  -0.4604  -0.4467
 -0.4314  -0.3970  -0.3830  -0.3713  -0.3501  -0.3010  -0.2876  -0.2176

          Ground-State Mulliken Net Atomic Charges

     Atom                 Charge (a.u.)
  ----------------------------------------
      1 C                    -0.070354
      2 C                    -0.256435
      3 S                    -0.134540
      4 C                    -0.045489
      5 H                     0.194028
      6 C                    -0.050773
      7 C                     0.220431
      8 C                     0.230402
      9 C                    -0.073058
     10 C                    -0.043194
     11 O                    -0.334770
     12 O                    -0.344068
     13 C                    -0.082550
     14 H                     0.119935
     15 H                     0.092171
     16 H                     0.092971
     17 C                    -0.088201
     18 H                     0.123716
     19 H                     0.093534
     20 H                     0.090575
     21 C                    -0.287143
     22 S                    -0.084491
     23 C                     0.061075
     24 H                     0.203211
     25 C                    -0.014754
     26 S                     0.082268
     27 C                    -0.201245
     28 C                    -0.020222
     29 C                    -0.105056
     30 S                     0.006063
     31 C                    -0.160263
     32 C                     0.400868
     33 F                    -0.206742
     34 C                     0.445823
     35 O                    -0.460599
     36 O                    -0.300873
     37 C                    -0.058585
     38 H                     0.121464
     39 H                     0.095217
     40 H                     0.095063
     41 H                     0.217123
     42 H                     0.117932
     43 H                     0.115506
     44 H                     0.204029
  ----------------------------------------
  Sum of atomic charges =     0.000000

                    Cartesian Multipole Moments
 -----------------------------------------------------------------
    Charge (ESU x 10^10)
                -0.0000
    Dipole Moment (Debye)
         X       1.5213      Y       1.9855      Z       2.5062
       Tot       3.5409
    Quadrupole Moments (Debye-Ang)
        XX    -198.5064     XY       7.8719     YY    -175.7635
        XZ       0.3691     YZ      -3.4350     ZZ    -188.2242

 Total job time:  328.31s(wall), 10628.83s(cpu)
        *  Thank you very much for using Q-Chem.  Have a nice day.  *
