 Q-Chem 5.4, Q-Chem, Inc., Pleasanton, CA (2021)
 Q-Chem 5.4.0 for Intel X86 EM64T Linux

User input:
--------------------------------------------------------------
$molecule
0 1
C	-0.270358	-8.517702	0.172904
C	0.548363	-7.641575	-0.524688
S	-1.445750	-7.638634	1.180599
C	0.259951	-6.264785	-0.282727
H	1.347559	-7.966081	-1.203014
C	-0.833868	-6.072714	0.632972
C	-1.248701	-4.787049	1.013580
C	0.965673	-5.162801	-0.845068
C	0.553357	-3.874817	-0.460946
C	-0.543470	-3.683952	0.453541
O	1.958276	-5.499772	-1.714812
O	-2.245053	-4.459055	1.888193
C	-3.360989	-5.329063	2.033848
H	-4.130667	-4.755694	2.584788
H	-3.112380	-6.238095	2.624118
H	-3.770895	-5.637262	1.047748
C	2.994272	-4.572261	-2.013896
H	3.763700	-5.139743	-2.570853
H	3.448815	-4.153131	-1.090625
H	2.636780	-3.739531	-2.657717
C	-0.827659	-2.306654	0.694943
S	1.174750	-2.306501	-0.999993
C	-0.000000	-1.435185	-0.000000
H	-1.627541	-1.978138	1.370385
C	0.000000	0.000000	0.000000
S	0.382799	0.819795	1.507541
C	1.046687	2.245325	0.718873
C	0.382918	0.819389	-1.067872
C	0.968323	2.080267	-0.686410
S	0.282561	0.597432	-2.805516
C	1.017839	2.187324	-3.054530
C	1.314960	2.830306	-1.862551
F	1.875498	4.043751	-1.819088
C	1.208895	2.592573	-4.456084
O	0.890778	1.891482	-5.406510
O	1.772886	3.819715	-4.569225
C	1.986852	4.266207	-5.916207
H	2.445834	5.267032	-5.833064
H	1.028114	4.323448	-6.470168
H	2.661066	3.573494	-6.459293
H	1.436015	3.083584	1.306486
H	0.311979	-9.143623	0.859314
H	-0.852097	-9.149441	-0.508666
H	0.699874	-1.443175	0.822504
$end

$rem
JOBTYPE		SP
EXCHANGE	HF
CORRELATION	pRIMP2
BASIS		cc-pvtz
METHOD		rimp2
AUX_BASIS	rimp2-cc-pvtz
SOLVENT_METHOD	PCM
PURECART	11111
SYMMETRY	false
MEM_TOTAL	110000
SCF_CONVERGENCE = 6
THRESH=10
GUI = 2
$end

$solvent
dielectric 4.90
$end
--------------------------------------------------------------

             Standard Nuclear Orientation (Angstroms)
    I     Atom           X                Y                Z
 ----------------------------------------------------------------
    1      C      -0.2703580000    -8.5177020000     0.1729040000
    2      C       0.5483630000    -7.6415750000    -0.5246880000
    3      S      -1.4457500000    -7.6386340000     1.1805990000
    4      C       0.2599510000    -6.2647850000    -0.2827270000
    5      H       1.3475590000    -7.9660810000    -1.2030140000
    6      C      -0.8338680000    -6.0727140000     0.6329720000
    7      C      -1.2487010000    -4.7870490000     1.0135800000
    8      C       0.9656730000    -5.1628010000    -0.8450680000
    9      C       0.5533570000    -3.8748170000    -0.4609460000
   10      C      -0.5434700000    -3.6839520000     0.4535410000
   11      O       1.9582760000    -5.4997720000    -1.7148120000
   12      O      -2.2450530000    -4.4590550000     1.8881930000
   13      C      -3.3609890000    -5.3290630000     2.0338480000
   14      H      -4.1306670000    -4.7556940000     2.5847880000
   15      H      -3.1123800000    -6.2380950000     2.6241180000
   16      H      -3.7708950000    -5.6372620000     1.0477480000
   17      C       2.9942720000    -4.5722610000    -2.0138960000
   18      H       3.7637000000    -5.1397430000    -2.5708530000
   19      H       3.4488150000    -4.1531310000    -1.0906250000
   20      H       2.6367800000    -3.7395310000    -2.6577170000
   21      C      -0.8276590000    -2.3066540000     0.6949430000
   22      S       1.1747500000    -2.3065010000    -0.9999930000
   23      C       0.0000000000    -1.4351850000     0.0000000000
   24      H      -1.6275410000    -1.9781380000     1.3703850000
   25      C       0.0000000000     0.0000000000     0.0000000000
   26      S       0.3827990000     0.8197950000     1.5075410000
   27      C       1.0466870000     2.2453250000     0.7188730000
   28      C       0.3829180000     0.8193890000    -1.0678720000
   29      C       0.9683230000     2.0802670000    -0.6864100000
   30      S       0.2825610000     0.5974320000    -2.8055160000
   31      C       1.0178390000     2.1873240000    -3.0545300000
   32      C       1.3149600000     2.8303060000    -1.8625510000
   33      F       1.8754980000     4.0437510000    -1.8190880000
   34      C       1.2088950000     2.5925730000    -4.4560840000
   35      O       0.8907780000     1.8914820000    -5.4065100000
   36      O       1.7728860000     3.8197150000    -4.5692250000
   37      C       1.9868520000     4.2662070000    -5.9162070000
   38      H       2.4458340000     5.2670320000    -5.8330640000
   39      H       1.0281140000     4.3234480000    -6.4701680000
   40      H       2.6610660000     3.5734940000    -6.4592930000
   41      H       1.4360150000     3.0835840000     1.3064860000
   42      H       0.3119790000    -9.1436230000     0.8593140000
   43      H      -0.8520970000    -9.1494410000    -0.5086660000
   44      H       0.6998740000    -1.4431750000     0.8225040000
 ----------------------------------------------------------------

   11   -2755.3327493992      7.99e-07  Convergence criterion met
 Total energy in the final basis set =    -2755.3327493992
        RIMP2         total energy =     -2760.4235863087 a.u.

                    Orbital Energies (a.u.)
 --------------------------------------------------------------

 Alpha MOs
 -- Occupied --
-92.0134 -91.9973 -91.9780 -91.9578 -26.3433 -20.6149 -20.5872 -20.5865
-20.5614 -11.4094 -11.3823 -11.3121 -11.3088 -11.3069 -11.3011 -11.2990
-11.2976 -11.2889 -11.2851 -11.2840 -11.2828 -11.2825 -11.2791 -11.2723
-11.2709 -11.2578 -11.2567 -11.2493 -11.2361  -9.0127  -8.9974  -8.9801
 -8.9604  -6.6935  -6.6928  -6.6923  -6.6784  -6.6777  -6.6766  -6.6612
 -6.6603  -6.6590  -6.6417  -6.6407  -6.6397  -1.6604  -1.4673  -1.4100
 -1.4088  -1.3700  -1.2312  -1.2018  -1.1734  -1.1382  -1.0993  -1.0468
 -1.0439  -1.0252  -1.0033  -0.9961  -0.9637  -0.9574  -0.9483  -0.9410
 -0.8932  -0.8684  -0.8650  -0.8156  -0.7945  -0.7892  -0.7840  -0.7680
 -0.7565  -0.7377  -0.7253  -0.7157  -0.6965  -0.6880  -0.6846  -0.6799
 -0.6739  -0.6619  -0.6557  -0.6484  -0.6363  -0.6298  -0.6197  -0.6150
 -0.6108  -0.5995  -0.5921  -0.5765  -0.5713  -0.5635  -0.5599  -0.5572
 -0.5466  -0.5331  -0.5311  -0.5244  -0.5125  -0.5095  -0.5072  -0.5011
 -0.4848  -0.4805  -0.4760  -0.4737  -0.4691  -0.4673  -0.4598  -0.4467
 -0.4274  -0.3958  -0.3850  -0.3694  -0.3524  -0.2989  -0.2890  -0.2185

          Ground-State Mulliken Net Atomic Charges

     Atom                 Charge (a.u.)
  ----------------------------------------
      1 C                    -0.069968
      2 C                    -0.262164
      3 S                    -0.136858
      4 C                    -0.045589
      5 H                     0.193258
      6 C                    -0.048489
      7 C                     0.216285
      8 C                     0.223607
      9 C                    -0.071599
     10 C                    -0.026728
     11 O                    -0.334810
     12 O                    -0.343629
     13 C                    -0.082829
     14 H                     0.119737
     15 H                     0.092186
     16 H                     0.093086
     17 C                    -0.088199
     18 H                     0.123625
     19 H                     0.091786
     20 H                     0.091471
     21 C                    -0.295598
     22 S                    -0.081858
     23 C                     0.085132
     24 H                     0.203693
     25 C                    -0.019182
     26 S                     0.087425
     27 C                    -0.186877
     28 C                    -0.084644
     29 C                    -0.080702
     30 S                     0.020846
     31 C                    -0.155007
     32 C                     0.398457
     33 F                    -0.207315
     34 C                     0.444150
     35 O                    -0.460327
     36 O                    -0.300862
     37 C                    -0.058510
     38 H                     0.121338
     39 H                     0.095247
     40 H                     0.095081
     41 H                     0.217777
     42 H                     0.116988
     43 H                     0.114759
     44 H                     0.195808
  ----------------------------------------
  Sum of atomic charges =     0.000000

                    Cartesian Multipole Moments
 -----------------------------------------------------------------
    Charge (ESU x 10^10)
                -0.0000
    Dipole Moment (Debye)
         X       1.7342      Y       2.7364      Z       3.2430
       Tot       4.5839
    Quadrupole Moments (Debye-Ang)
        XX    -182.9164     XY       3.1118     YY    -178.7850
        XZ      -9.3595     YZ      -4.1080     ZZ    -203.7409

 Total job time:  324.76s(wall), 10588.16s(cpu)
        *  Thank you very much for using Q-Chem.  Have a nice day.  *
