 Q-Chem 5.4, Q-Chem, Inc., Pleasanton, CA (2021)
 Q-Chem 5.4.0 for Intel X86 EM64T Linux

User input:
--------------------------------------------------------------
$molecule
0 1
C	-0.320589	-8.517702	0.014560
C	0.737240	-7.641575	-0.180211
S	-1.842356	-7.638634	0.299553
C	0.366488	-6.264785	-0.114873
H	1.768528	-7.966081	-0.368061
C	-1.038637	-6.072714	0.131236
C	-1.588197	-4.787049	0.253435
C	1.258831	-5.162801	-0.249014
C	0.709695	-3.874817	-0.122513
C	-0.697430	-3.683952	0.121043
O	2.553323	-5.499772	-0.505933
O	-2.888369	-4.459055	0.512697
C	-3.927625	-5.329063	0.080869
H	-4.869656	-4.755694	0.173159
H	-4.007459	-6.238095	0.716363
H	-3.789565	-5.637262	-0.978072
C	3.600064	-4.572261	-0.246949
H	4.544887	-5.139743	-0.344574
H	3.532074	-4.153131	0.779898
H	3.612378	-3.739531	-0.983261
C	-1.064246	-2.306654	0.188009
S	1.517360	-2.306501	-0.278644
C	-0.000000	-1.435185	-0.000000
H	-2.094685	-1.978138	0.373017
C	0.000000	0.000000	0.000000
S	0.157577	0.890937	1.507541
C	0.429889	2.439720	0.718873
C	0.157797	0.890576	-1.067872
C	0.396915	2.260004	-0.686410
S	0.118307	0.650207	-2.805516
C	0.417036	2.376229	-3.054530
C	0.537616	3.074202	-1.862551
F	0.764992	4.391378	-1.819088
C	0.496696	2.817118	-4.456084
O	0.370874	2.057582	-5.406510
O	0.723861	4.148418	-4.569225
C	0.814976	4.635075	-5.916207
H	0.999286	5.720591	-5.833064
H	-0.125909	4.442226	-6.470168
H	1.645504	4.140465	-6.459293
H	0.588993	3.350182	1.306486
H	-0.159475	-9.143623	0.900177
H	-0.483604	-9.149441	-0.866566
H	0.194856	-1.443175	1.062246
$end

$rem
JOBTYPE		SP
EXCHANGE	HF
CORRELATION	pRIMP2
BASIS		cc-pvtz
METHOD		rimp2
AUX_BASIS	rimp2-cc-pvtz
SOLVENT_METHOD	PCM
PURECART	11111
SYMMETRY	false
MEM_TOTAL	110000
SCF_CONVERGENCE = 6
THRESH=10
GUI = 2
$end

$solvent
dielectric 4.90
$end
--------------------------------------------------------------

             Standard Nuclear Orientation (Angstroms)
    I     Atom           X                Y                Z
 ----------------------------------------------------------------
    1      C      -0.3205890000    -8.5177020000     0.0145600000
    2      C       0.7372400000    -7.6415750000    -0.1802110000
    3      S      -1.8423560000    -7.6386340000     0.2995530000
    4      C       0.3664880000    -6.2647850000    -0.1148730000
    5      H       1.7685280000    -7.9660810000    -0.3680610000
    6      C      -1.0386370000    -6.0727140000     0.1312360000
    7      C      -1.5881970000    -4.7870490000     0.2534350000
    8      C       1.2588310000    -5.1628010000    -0.2490140000
    9      C       0.7096950000    -3.8748170000    -0.1225130000
   10      C      -0.6974300000    -3.6839520000     0.1210430000
   11      O       2.5533230000    -5.4997720000    -0.5059330000
   12      O      -2.8883690000    -4.4590550000     0.5126970000
   13      C      -3.9276250000    -5.3290630000     0.0808690000
   14      H      -4.8696560000    -4.7556940000     0.1731590000
   15      H      -4.0074590000    -6.2380950000     0.7163630000
   16      H      -3.7895650000    -5.6372620000    -0.9780720000
   17      C       3.6000640000    -4.5722610000    -0.2469490000
   18      H       4.5448870000    -5.1397430000    -0.3445740000
   19      H       3.5320740000    -4.1531310000     0.7798980000
   20      H       3.6123780000    -3.7395310000    -0.9832610000
   21      C      -1.0642460000    -2.3066540000     0.1880090000
   22      S       1.5173600000    -2.3065010000    -0.2786440000
   23      C       0.0000000000    -1.4351850000     0.0000000000
   24      H      -2.0946850000    -1.9781380000     0.3730170000
   25      C       0.0000000000     0.0000000000     0.0000000000
   26      S       0.1575770000     0.8909370000     1.5075410000
   27      C       0.4298890000     2.4397200000     0.7188730000
   28      C       0.1577970000     0.8905760000    -1.0678720000
   29      C       0.3969150000     2.2600040000    -0.6864100000
   30      S       0.1183070000     0.6502070000    -2.8055160000
   31      C       0.4170360000     2.3762290000    -3.0545300000
   32      C       0.5376160000     3.0742020000    -1.8625510000
   33      F       0.7649920000     4.3913780000    -1.8190880000
   34      C       0.4966960000     2.8171180000    -4.4560840000
   35      O       0.3708740000     2.0575820000    -5.4065100000
   36      O       0.7238610000     4.1484180000    -4.5692250000
   37      C       0.8149760000     4.6350750000    -5.9162070000
   38      H       0.9992860000     5.7205910000    -5.8330640000
   39      H      -0.1259090000     4.4422260000    -6.4701680000
   40      H       1.6455040000     4.1404650000    -6.4592930000
   41      H       0.5889930000     3.3501820000     1.3064860000
   42      H      -0.1594750000    -9.1436230000     0.9001770000
   43      H      -0.4836040000    -9.1494410000    -0.8665660000
   44      H       0.1948560000    -1.4431750000     1.0622460000
 ----------------------------------------------------------------

   11   -2755.3435649488      7.47e-07  Convergence criterion met
 Total energy in the final basis set =    -2755.3435649488
        RIMP2         total energy =     -2760.4306051272 a.u.

                    Orbital Energies (a.u.)
 --------------------------------------------------------------

 Alpha MOs
 -- Occupied --
-92.0176 -91.9982 -91.9770 -91.9575 -26.3435 -20.6149 -20.5870 -20.5862
-20.5614 -11.4095 -11.3826 -11.3120 -11.3087 -11.3062 -11.2998 -11.2986
-11.2980 -11.2889 -11.2852 -11.2840 -11.2826 -11.2824 -11.2789 -11.2719
-11.2718 -11.2576 -11.2562 -11.2490 -11.2354  -9.0162  -8.9983  -8.9791
 -8.9601  -6.6969  -6.6963  -6.6958  -6.6793  -6.6786  -6.6774  -6.6602
 -6.6593  -6.6580  -6.6414  -6.6404  -6.6394  -1.6606  -1.4674  -1.4098
 -1.4086  -1.3701  -1.2287  -1.2023  -1.1730  -1.1377  -1.0992  -1.0457
 -1.0439  -1.0248  -1.0033  -0.9963  -0.9630  -0.9583  -0.9479  -0.9405
 -0.8928  -0.8686  -0.8662  -0.8145  -0.7971  -0.7890  -0.7842  -0.7675
 -0.7567  -0.7376  -0.7255  -0.7169  -0.6968  -0.6863  -0.6846  -0.6793
 -0.6740  -0.6604  -0.6557  -0.6482  -0.6340  -0.6297  -0.6194  -0.6148
 -0.6109  -0.5992  -0.5914  -0.5766  -0.5714  -0.5635  -0.5589  -0.5553
 -0.5482  -0.5324  -0.5312  -0.5242  -0.5125  -0.5077  -0.5069  -0.5011
 -0.4855  -0.4816  -0.4762  -0.4739  -0.4700  -0.4680  -0.4607  -0.4461
 -0.4229  -0.3996  -0.3847  -0.3695  -0.3510  -0.3015  -0.2890  -0.2202

          Ground-State Mulliken Net Atomic Charges

     Atom                 Charge (a.u.)
  ----------------------------------------
      1 C                    -0.070017
      2 C                    -0.263362
      3 S                    -0.137169
      4 C                    -0.042657
      5 H                     0.192946
      6 C                    -0.053483
      7 C                     0.227936
      8 C                     0.222137
      9 C                    -0.074280
     10 C                    -0.053379
     11 O                    -0.335093
     12 O                    -0.343436
     13 C                    -0.082650
     14 H                     0.119845
     15 H                     0.091926
     16 H                     0.093170
     17 C                    -0.086475
     18 H                     0.122911
     19 H                     0.091603
     20 H                     0.090929
     21 C                    -0.258355
     22 S                    -0.071088
     23 C                     0.076388
     24 H                     0.203577
     25 C                    -0.090234
     26 S                     0.092714
     27 C                    -0.188453
     28 C                     0.012934
     29 C                    -0.105968
     30 S                     0.012101
     31 C                    -0.157633
     32 C                     0.398362
     33 F                    -0.207009
     34 C                     0.444802
     35 O                    -0.460460
     36 O                    -0.300671
     37 C                    -0.058580
     38 H                     0.121316
     39 H                     0.095180
     40 H                     0.095193
     41 H                     0.219207
     42 H                     0.116679
     43 H                     0.114585
     44 H                     0.184014
  ----------------------------------------
  Sum of atomic charges =     0.000000

                    Cartesian Multipole Moments
 -----------------------------------------------------------------
    Charge (ESU x 10^10)
                 0.0000
    Dipole Moment (Debye)
         X       0.7052      Y       3.2674      Z       3.4702
       Tot       4.8183
    Quadrupole Moments (Debye-Ang)
        XX    -183.4793     XY      -0.8963     YY    -177.3882
        XZ       1.5995     YZ      -6.5869     ZZ    -205.6321

 Total job time:  371.58s(wall), 11317.76s(cpu)
        *  Thank you very much for using Q-Chem.  Have a nice day.  *
