 Q-Chem 5.4, Q-Chem, Inc., Pleasanton, CA (2021)
 Q-Chem 5.4.0 for Intel X86 EM64T Linux

User input:
--------------------------------------------------------------
$molecule
0 1
C	0.701193	-8.488892	0.318247
C	0.616742	-7.616807	-0.757333
S	0.640926	-7.611739	1.866383
C	0.496713	-6.245258	-0.380867
H	0.639132	-7.940593	-1.805573
C	0.478351	-6.054060	1.045647
C	0.391116	-4.771116	1.608077
C	0.423432	-5.145477	-1.282948
C	0.340289	-3.859847	-0.720187
C	0.319182	-3.670099	0.707853
O	0.424679	-5.483626	-2.602386
O	0.391967	-4.441795	2.933517
C	-0.135633	-5.361285	3.881999
H	-0.258024	-4.796434	4.825744
H	0.553241	-6.213521	4.070972
H	-1.123774	-5.757113	3.562152
C	0.778992	-4.521574	-3.588253
H	0.896118	-5.080975	-4.535674
H	1.738100	-4.016931	-3.342986
H	-0.013821	-3.755025	-3.728239
C	0.201385	-2.297846	1.080725
S	0.190142	-2.298676	-1.542694
C	0.125085	-1.429724	0.000000
H	0.176004	-1.970295	2.127635
C	0.000000	0.000000	0.000000
S	0.157577	0.890937	1.507541
C	0.429889	2.439720	0.718873
C	0.157797	0.890576	-1.067872
C	0.396915	2.260004	-0.686410
S	0.118307	0.650207	-2.805516
C	0.417036	2.376229	-3.054530
C	0.537616	3.074202	-1.862551
F	0.764992	4.391378	-1.819088
C	0.496696	2.817118	-4.456084
O	0.370874	2.057582	-5.406510
O	0.723861	4.148418	-4.569225
C	0.814976	4.635075	-5.916207
H	0.999286	5.720591	-5.833064
H	-0.125909	4.442226	-6.470168
H	1.645504	4.140465	-6.459293
H	0.588993	3.350182	1.306486
H	1.652460	-9.033979	0.313367
H	-0.136385	-9.196322	0.325780
H	1.201616	-1.343560	-0.007439
$end

$rem
JOBTYPE		SP
EXCHANGE	HF
CORRELATION	pRIMP2
BASIS		cc-pvtz
METHOD		rimp2
AUX_BASIS	rimp2-cc-pvtz
SOLVENT_METHOD	PCM
PURECART	11111
SYMMETRY	false
MEM_TOTAL	110000
SCF_CONVERGENCE = 6
THRESH=10
GUI = 2
$end

$solvent
dielectric 4.90
$end
--------------------------------------------------------------

             Standard Nuclear Orientation (Angstroms)
    I     Atom           X                Y                Z
 ----------------------------------------------------------------
    1      C       0.7011930000    -8.4888920000     0.3182470000
    2      C       0.6167420000    -7.6168070000    -0.7573330000
    3      S       0.6409260000    -7.6117390000     1.8663830000
    4      C       0.4967130000    -6.2452580000    -0.3808670000
    5      H       0.6391320000    -7.9405930000    -1.8055730000
    6      C       0.4783510000    -6.0540600000     1.0456470000
    7      C       0.3911160000    -4.7711160000     1.6080770000
    8      C       0.4234320000    -5.1454770000    -1.2829480000
    9      C       0.3402890000    -3.8598470000    -0.7201870000
   10      C       0.3191820000    -3.6700990000     0.7078530000
   11      O       0.4246790000    -5.4836260000    -2.6023860000
   12      O       0.3919670000    -4.4417950000     2.9335170000
   13      C      -0.1356330000    -5.3612850000     3.8819990000
   14      H      -0.2580240000    -4.7964340000     4.8257440000
   15      H       0.5532410000    -6.2135210000     4.0709720000
   16      H      -1.1237740000    -5.7571130000     3.5621520000
   17      C       0.7789920000    -4.5215740000    -3.5882530000
   18      H       0.8961180000    -5.0809750000    -4.5356740000
   19      H       1.7381000000    -4.0169310000    -3.3429860000
   20      H      -0.0138210000    -3.7550250000    -3.7282390000
   21      C       0.2013850000    -2.2978460000     1.0807250000
   22      S       0.1901420000    -2.2986760000    -1.5426940000
   23      C       0.1250850000    -1.4297240000     0.0000000000
   24      H       0.1760040000    -1.9702950000     2.1276350000
   25      C       0.0000000000     0.0000000000     0.0000000000
   26      S       0.1575770000     0.8909370000     1.5075410000
   27      C       0.4298890000     2.4397200000     0.7188730000
   28      C       0.1577970000     0.8905760000    -1.0678720000
   29      C       0.3969150000     2.2600040000    -0.6864100000
   30      S       0.1183070000     0.6502070000    -2.8055160000
   31      C       0.4170360000     2.3762290000    -3.0545300000
   32      C       0.5376160000     3.0742020000    -1.8625510000
   33      F       0.7649920000     4.3913780000    -1.8190880000
   34      C       0.4966960000     2.8171180000    -4.4560840000
   35      O       0.3708740000     2.0575820000    -5.4065100000
   36      O       0.7238610000     4.1484180000    -4.5692250000
   37      C       0.8149760000     4.6350750000    -5.9162070000
   38      H       0.9992860000     5.7205910000    -5.8330640000
   39      H      -0.1259090000     4.4422260000    -6.4701680000
   40      H       1.6455040000     4.1404650000    -6.4592930000
   41      H       0.5889930000     3.3501820000     1.3064860000
   42      H       1.6524600000    -9.0339790000     0.3133670000
   43      H      -0.1363850000    -9.1963220000     0.3257800000
   44      H       1.2016160000    -1.3435600000    -0.0074390000
 ----------------------------------------------------------------

   11   -2755.3399589646      8.41e-07  Convergence criterion met
 Total energy in the final basis set =    -2755.3399589646
        RIMP2         total energy =     -2760.4319350225 a.u.

                    Orbital Energies (a.u.)
 --------------------------------------------------------------

 Alpha MOs
 -- Occupied --
-92.0135 -91.9939 -91.9804 -91.9603 -26.3418 -20.6147 -20.5888 -20.5883
-20.5612 -11.4090 -11.3800 -11.3119 -11.3112 -11.3103 -11.2992 -11.2972
-11.2905 -11.2887 -11.2852 -11.2852 -11.2849 -11.2842 -11.2838 -11.2758
-11.2727 -11.2622 -11.2600 -11.2518 -11.2414  -9.0123  -8.9943  -8.9829
 -8.9629  -6.6931  -6.6925  -6.6919  -6.6753  -6.6746  -6.6734  -6.6640
 -6.6631  -6.6618  -6.6441  -6.6432  -6.6421  -1.6589  -1.4671  -1.4121
 -1.4102  -1.3697  -1.2308  -1.2026  -1.1759  -1.1372  -1.1014  -1.0490
 -1.0440  -1.0240  -1.0049  -0.9983  -0.9638  -0.9568  -0.9499  -0.9421
 -0.8952  -0.8695  -0.8650  -0.8154  -0.7923  -0.7905  -0.7848  -0.7703
 -0.7565  -0.7377  -0.7239  -0.7109  -0.6969  -0.6940  -0.6844  -0.6818
 -0.6736  -0.6646  -0.6568  -0.6497  -0.6385  -0.6317  -0.6220  -0.6163
 -0.6113  -0.5998  -0.5935  -0.5767  -0.5713  -0.5667  -0.5605  -0.5564
 -0.5498  -0.5329  -0.5312  -0.5272  -0.5165  -0.5121  -0.5085  -0.5011
 -0.4848  -0.4790  -0.4769  -0.4736  -0.4705  -0.4658  -0.4596  -0.4483
 -0.4328  -0.3983  -0.3831  -0.3728  -0.3506  -0.3004  -0.2861  -0.2184

          Ground-State Mulliken Net Atomic Charges

     Atom                 Charge (a.u.)
  ----------------------------------------
      1 C                    -0.070842
      2 C                    -0.246411
      3 S                    -0.131577
      4 C                    -0.051265
      5 H                     0.195348
      6 C                    -0.048506
      7 C                     0.218683
      8 C                     0.233636
      9 C                    -0.067718
     10 C                    -0.026287
     11 O                    -0.333760
     12 O                    -0.344096
     13 C                    -0.082686
     14 H                     0.120224
     15 H                     0.092125
     16 H                     0.093193
     17 C                    -0.089603
     18 H                     0.125152
     19 H                     0.093575
     20 H                     0.091926
     21 C                    -0.330343
     22 S                    -0.115961
     23 C                     0.147940
     24 H                     0.196863
     25 C                     0.024792
     26 S                     0.073830
     27 C                    -0.224518
     28 C                    -0.060439
     29 C                    -0.109511
     30 S                    -0.009865
     31 C                    -0.165158
     32 C                     0.408926
     33 F                    -0.208180
     34 C                     0.442889
     35 O                    -0.460599
     36 O                    -0.300617
     37 C                    -0.058821
     38 H                     0.121417
     39 H                     0.095193
     40 H                     0.094994
     41 H                     0.216802
     42 H                     0.119196
     43 H                     0.116847
     44 H                     0.213211
  ----------------------------------------
  Sum of atomic charges =     0.000000

                    Cartesian Multipole Moments
 -----------------------------------------------------------------
    Charge (ESU x 10^10)
                 0.0000
    Dipole Moment (Debye)
         X       1.1503      Y       1.1476      Z       2.7183
       Tot       3.1669
    Quadrupole Moments (Debye-Ang)
        XX    -199.3822     XY       1.0232     YY    -168.6444
        XZ      -7.4285     YZ      -3.5730     ZZ    -189.6948

 Total job time:  354.92s(wall), 10706.27s(cpu)
        *  Thank you very much for using Q-Chem.  Have a nice day.  *
