 Q-Chem 5.4, Q-Chem, Inc., Pleasanton, CA (2021)
 Q-Chem 5.4.0 for Intel X86 EM64T Linux

User input:
--------------------------------------------------------------
$molecule
0 1
C	-0.236226	-8.517702	0.217225
C	0.448921	-7.641575	-0.611939
S	-1.218777	-7.638634	1.413715
C	0.206907	-6.264785	-0.323572
H	1.118185	-7.966081	-1.418739
C	-0.711285	-6.072714	0.768156
C	-1.053725	-4.787049	1.215016
C	0.804258	-5.162801	-0.999917
C	0.464908	-3.874817	-0.550033
C	-0.456457	-3.683952	0.541024
O	1.630752	-5.499772	-2.028811
O	-1.883064	-4.459055	2.249357
C	-2.956754	-5.329063	2.586579
H	-3.619069	-4.755694	3.262802
H	-2.609423	-6.238095	3.124711
H	-3.531667	-5.637262	1.686639
C	2.599073	-4.572261	-2.503251
H	3.260097	-5.139743	-3.185356
H	3.207034	-4.153131	-1.672937
H	2.135214	-3.739531	-3.075213
C	-0.694410	-2.306654	0.828107
S	0.983256	-2.306501	-1.188794
C	-0.000000	-1.435185	-0.000000
H	-1.364851	-1.978138	1.632185
C	0.000000	0.000000	0.000000
S	0.783786	0.451972	1.507541
C	2.145261	1.238908	0.718873
C	0.783650	0.451572	-1.067872
C	1.986396	1.148648	-0.686410
S	0.574133	0.327317	-2.805516
C	2.088363	1.207943	-3.054530
C	2.700548	1.564221	-1.862551
F	3.855718	2.236706	-1.819088
C	2.477307	1.430318	-4.456084
O	1.814592	1.038482	-5.406510
O	3.643162	2.112042	-4.569225
C	4.074530	2.355061	-5.916207
H	5.024556	2.911627	-5.833064
H	3.322010	2.951860	-6.470168
H	4.229490	1.400910	-6.459293
H	2.944986	1.702260	1.306486
H	0.456457	-9.143623	0.792084
H	-0.927480	-9.149441	-0.352973
H	0.832067	-1.443175	0.688477
$end

$rem
JOBTYPE		SP
EXCHANGE	HF
CORRELATION	pRIMP2
BASIS		cc-pvtz
METHOD		rimp2
AUX_BASIS	rimp2-cc-pvtz
SOLVENT_METHOD	PCM
PURECART	11111
SYMMETRY	false
MEM_TOTAL	110000
SCF_CONVERGENCE = 6
THRESH=10
GUI = 2
$end

$solvent
dielectric 4.90
$end
--------------------------------------------------------------

             Standard Nuclear Orientation (Angstroms)
    I     Atom           X                Y                Z
 ----------------------------------------------------------------
    1      C      -0.2362260000    -8.5177020000     0.2172250000
    2      C       0.4489210000    -7.6415750000    -0.6119390000
    3      S      -1.2187770000    -7.6386340000     1.4137150000
    4      C       0.2069070000    -6.2647850000    -0.3235720000
    5      H       1.1181850000    -7.9660810000    -1.4187390000
    6      C      -0.7112850000    -6.0727140000     0.7681560000
    7      C      -1.0537250000    -4.7870490000     1.2150160000
    8      C       0.8042580000    -5.1628010000    -0.9999170000
    9      C       0.4649080000    -3.8748170000    -0.5500330000
   10      C      -0.4564570000    -3.6839520000     0.5410240000
   11      O       1.6307520000    -5.4997720000    -2.0288110000
   12      O      -1.8830640000    -4.4590550000     2.2493570000
   13      C      -2.9567540000    -5.3290630000     2.5865790000
   14      H      -3.6190690000    -4.7556940000     3.2628020000
   15      H      -2.6094230000    -6.2380950000     3.1247110000
   16      H      -3.5316670000    -5.6372620000     1.6866390000
   17      C       2.5990730000    -4.5722610000    -2.5032510000
   18      H       3.2600970000    -5.1397430000    -3.1853560000
   19      H       3.2070340000    -4.1531310000    -1.6729370000
   20      H       2.1352140000    -3.7395310000    -3.0752130000
   21      C      -0.6944100000    -2.3066540000     0.8281070000
   22      S       0.9832560000    -2.3065010000    -1.1887940000
   23      C       0.0000000000    -1.4351850000     0.0000000000
   24      H      -1.3648510000    -1.9781380000     1.6321850000
   25      C       0.0000000000     0.0000000000     0.0000000000
   26      S       0.7837860000     0.4519720000     1.5075410000
   27      C       2.1452610000     1.2389080000     0.7188730000
   28      C       0.7836500000     0.4515720000    -1.0678720000
   29      C       1.9863960000     1.1486480000    -0.6864100000
   30      S       0.5741330000     0.3273170000    -2.8055160000
   31      C       2.0883630000     1.2079430000    -3.0545300000
   32      C       2.7005480000     1.5642210000    -1.8625510000
   33      F       3.8557180000     2.2367060000    -1.8190880000
   34      C       2.4773070000     1.4303180000    -4.4560840000
   35      O       1.8145920000     1.0384820000    -5.4065100000
   36      O       3.6431620000     2.1120420000    -4.5692250000
   37      C       4.0745300000     2.3550610000    -5.9162070000
   38      H       5.0245560000     2.9116270000    -5.8330640000
   39      H       3.3220100000     2.9518600000    -6.4701680000
   40      H       4.2294900000     1.4009100000    -6.4592930000
   41      H       2.9449860000     1.7022600000     1.3064860000
   42      H       0.4564570000    -9.1436230000     0.7920840000
   43      H      -0.9274800000    -9.1494410000    -0.3529730000
   44      H       0.8320670000    -1.4431750000     0.6884770000
 ----------------------------------------------------------------

   11   -2755.2602403919      8.79e-07  Convergence criterion met
 Total energy in the final basis set =    -2755.2602403919
        RIMP2         total energy =     -2760.3699145657 a.u.

                    Orbital Energies (a.u.)
 --------------------------------------------------------------

 Alpha MOs
 -- Occupied --
-92.0074 -92.0057 -91.9723 -91.9562 -26.3461 -20.6160 -20.5860 -20.5846
-20.5626 -11.4110 -11.3867 -11.3346 -11.3155 -11.3071 -11.3035 -11.2993
-11.2897 -11.2888 -11.2829 -11.2820 -11.2783 -11.2782 -11.2708 -11.2696
-11.2652 -11.2560 -11.2526 -11.2478 -11.2328  -9.0085  -9.0057  -8.9749
 -8.9588  -6.6891  -6.6881  -6.6879  -6.6866  -6.6858  -6.6848  -6.6558
 -6.6550  -6.6536  -6.6401  -6.6391  -6.6381  -1.6632  -1.4685  -1.4085
 -1.4073  -1.3713  -1.2460  -1.1987  -1.1726  -1.1425  -1.0977  -1.0506
 -1.0427  -1.0307  -1.0008  -0.9931  -0.9677  -0.9564  -0.9483  -0.9412
 -0.8915  -0.8726  -0.8570  -0.8216  -0.7955  -0.7868  -0.7813  -0.7669
 -0.7574  -0.7391  -0.7280  -0.7171  -0.6953  -0.6926  -0.6860  -0.6798
 -0.6751  -0.6651  -0.6543  -0.6472  -0.6365  -0.6307  -0.6181  -0.6145
 -0.6102  -0.6028  -0.5902  -0.5778  -0.5721  -0.5676  -0.5584  -0.5553
 -0.5377  -0.5327  -0.5309  -0.5258  -0.5130  -0.5107  -0.5061  -0.4995
 -0.4876  -0.4810  -0.4768  -0.4739  -0.4681  -0.4621  -0.4530  -0.4446
 -0.4285  -0.3900  -0.3807  -0.3678  -0.3530  -0.3041  -0.2855  -0.2132

          Ground-State Mulliken Net Atomic Charges

     Atom                 Charge (a.u.)
  ----------------------------------------
      1 C                    -0.069660
      2 C                    -0.270963
      3 S                    -0.140560
      4 C                    -0.046307
      5 H                     0.191979
      6 C                    -0.051662
      7 C                     0.217373
      8 C                     0.221256
      9 C                    -0.070704
     10 C                    -0.024746
     11 O                    -0.335416
     12 O                    -0.343397
     13 C                    -0.082749
     14 H                     0.119357
     15 H                     0.091773
     16 H                     0.092856
     17 C                    -0.088786
     18 H                     0.123329
     19 H                     0.090168
     20 H                     0.091908
     21 C                    -0.343672
     22 S                    -0.102021
     23 C                     0.132783
     24 H                     0.201366
     25 C                    -0.155397
     26 S                     0.076339
     27 C                    -0.117522
     28 C                     0.024875
     29 C                    -0.107778
     30 S                     0.065817
     31 C                    -0.151804
     32 C                     0.398975
     33 F                    -0.205256
     34 C                     0.446732
     35 O                    -0.461239
     36 O                    -0.301025
     37 C                    -0.058199
     38 H                     0.121587
     39 H                     0.095470
     40 H                     0.095230
     41 H                     0.221176
     42 H                     0.115636
     43 H                     0.113522
     44 H                     0.179359
  ----------------------------------------
  Sum of atomic charges =     0.000000

                    Cartesian Multipole Moments
 -----------------------------------------------------------------
    Charge (ESU x 10^10)
                 0.0000
    Dipole Moment (Debye)
         X       3.9890      Y       2.9113      Z       2.6067
       Tot       5.5841
    Quadrupole Moments (Debye-Ang)
        XX    -174.9468     XY       5.6646     YY    -193.5672
        XZ     -14.3180     YZ      -0.6210     ZZ    -199.4961

 Total job time:  333.09s(wall), 10965.18s(cpu)
        *  Thank you very much for using Q-Chem.  Have a nice day.  *
