 Q-Chem 5.4, Q-Chem, Inc., Pleasanton, CA (2021)
 Q-Chem 5.4.0 for Intel X86 EM64T Linux

User input:
--------------------------------------------------------------
$molecule
0 1
C	-0.147685	-8.517702	0.284919
C	0.212552	-7.641575	-0.728574
S	-0.661757	-7.638634	1.745304
C	0.083761	-6.264785	-0.374824
H	0.565513	-7.966081	-1.715621
C	-0.405665	-6.072714	0.965104
C	-0.574617	-4.787049	1.502136
C	0.413763	-5.162801	-1.214687
C	0.248748	-3.874817	-0.675870
C	-0.243888	-3.683952	0.664513
O	0.838511	-5.499772	-2.464209
O	-1.000176	-4.459055	2.757750
C	-1.893778	-5.329063	3.441858
H	-2.284868	-4.755694	4.303826
H	-1.383341	-6.238095	3.828743
H	-2.741817	-5.637262	2.792824
C	1.586168	-4.572261	-3.241222
H	1.974033	-5.139743	-4.108274
H	2.441448	-4.153131	-2.668916
H	0.954660	-3.739531	-3.620041
C	-0.369302	-2.306654	1.015668
S	0.517367	-2.306501	-1.453394
C	-0.000000	-1.435185	-0.000000
H	-0.724300	-1.978138	2.000559
C	0.000000	0.000000	0.000000
S	0.309893	0.850039	1.507541
C	0.847011	2.328006	0.718873
C	0.310046	0.849645	-1.067872
C	0.783331	2.156746	-0.686410
S	0.229416	0.619785	-2.805516
C	0.823328	2.267711	-3.054530
C	1.063278	2.934142	-1.862551
F	1.515925	4.191824	-1.819088
C	0.978337	2.688069	-4.456084
O	0.722535	1.961921	-5.406510
O	1.433229	3.959697	-4.569225
C	1.607467	4.423139	-5.916207
H	1.977475	5.460158	-5.833064
H	0.647388	4.396602	-6.470168
H	2.339490	3.791823	-6.459293
H	1.161798	3.197007	1.306486
H	0.699838	-9.143623	0.588198
H	-0.992270	-9.149441	-0.014470
H	1.017360	-1.443175	0.362373
$end

$rem
JOBTYPE		SP
EXCHANGE	HF
CORRELATION	pRIMP2
BASIS		cc-pvtz
METHOD		rimp2
AUX_BASIS	rimp2-cc-pvtz
SOLVENT_METHOD	PCM
PURECART	11111
SYMMETRY	false
MEM_TOTAL	110000
SCF_CONVERGENCE = 6
THRESH=10
GUI = 2
$end

$solvent
dielectric 4.90
$end
--------------------------------------------------------------

             Standard Nuclear Orientation (Angstroms)
    I     Atom           X                Y                Z
 ----------------------------------------------------------------
    1      C      -0.1476850000    -8.5177020000     0.2849190000
    2      C       0.2125520000    -7.6415750000    -0.7285740000
    3      S      -0.6617570000    -7.6386340000     1.7453040000
    4      C       0.0837610000    -6.2647850000    -0.3748240000
    5      H       0.5655130000    -7.9660810000    -1.7156210000
    6      C      -0.4056650000    -6.0727140000     0.9651040000
    7      C      -0.5746170000    -4.7870490000     1.5021360000
    8      C       0.4137630000    -5.1628010000    -1.2146870000
    9      C       0.2487480000    -3.8748170000    -0.6758700000
   10      C      -0.2438880000    -3.6839520000     0.6645130000
   11      O       0.8385110000    -5.4997720000    -2.4642090000
   12      O      -1.0001760000    -4.4590550000     2.7577500000
   13      C      -1.8937780000    -5.3290630000     3.4418580000
   14      H      -2.2848680000    -4.7556940000     4.3038260000
   15      H      -1.3833410000    -6.2380950000     3.8287430000
   16      H      -2.7418170000    -5.6372620000     2.7928240000
   17      C       1.5861680000    -4.5722610000    -3.2412220000
   18      H       1.9740330000    -5.1397430000    -4.1082740000
   19      H       2.4414480000    -4.1531310000    -2.6689160000
   20      H       0.9546600000    -3.7395310000    -3.6200410000
   21      C      -0.3693020000    -2.3066540000     1.0156680000
   22      S       0.5173670000    -2.3065010000    -1.4533940000
   23      C       0.0000000000    -1.4351850000     0.0000000000
   24      H      -0.7243000000    -1.9781380000     2.0005590000
   25      C       0.0000000000     0.0000000000     0.0000000000
   26      S       0.3098930000     0.8500390000     1.5075410000
   27      C       0.8470110000     2.3280060000     0.7188730000
   28      C       0.3100460000     0.8496450000    -1.0678720000
   29      C       0.7833310000     2.1567460000    -0.6864100000
   30      S       0.2294160000     0.6197850000    -2.8055160000
   31      C       0.8233280000     2.2677110000    -3.0545300000
   32      C       1.0632780000     2.9341420000    -1.8625510000
   33      F       1.5159250000     4.1918240000    -1.8190880000
   34      C       0.9783370000     2.6880690000    -4.4560840000
   35      O       0.7225350000     1.9619210000    -5.4065100000
   36      O       1.4332290000     3.9596970000    -4.5692250000
   37      C       1.6074670000     4.4231390000    -5.9162070000
   38      H       1.9774750000     5.4601580000    -5.8330640000
   39      H       0.6473880000     4.3966020000    -6.4701680000
   40      H       2.3394900000     3.7918230000    -6.4592930000
   41      H       1.1617980000     3.1970070000     1.3064860000
   42      H       0.6998380000    -9.1436230000     0.5881980000
   43      H      -0.9922700000    -9.1494410000    -0.0144700000
   44      H       1.0173600000    -1.4431750000     0.3623730000
 ----------------------------------------------------------------

   11   -2755.3374204872      8.40e-07  Convergence criterion met
 Total energy in the final basis set =    -2755.3374204872
        RIMP2         total energy =     -2760.4292613973 a.u.

                    Orbital Energies (a.u.)
 --------------------------------------------------------------

 Alpha MOs
 -- Occupied --
-92.0123 -91.9941 -91.9797 -91.9599 -26.3421 -20.6146 -20.5884 -20.5881
-20.5612 -11.4090 -11.3805 -11.3105 -11.3099 -11.3090 -11.3032 -11.2971
-11.2926 -11.2887 -11.2846 -11.2843 -11.2840 -11.2836 -11.2836 -11.2752
-11.2715 -11.2611 -11.2597 -11.2514 -11.2407  -9.0114  -8.9945  -8.9820
 -8.9625  -6.6922  -6.6916  -6.6910  -6.6755  -6.6747  -6.6735  -6.6631
 -6.6622  -6.6609  -6.6437  -6.6428  -6.6417  -1.6592  -1.4670  -1.4117
 -1.4099  -1.3697  -1.2310  -1.2023  -1.1755  -1.1375  -1.1008  -1.0485
 -1.0440  -1.0243  -1.0045  -0.9977  -0.9636  -0.9569  -0.9497  -0.9418
 -0.8948  -0.8685  -0.8652  -0.8153  -0.7928  -0.7901  -0.7846  -0.7700
 -0.7562  -0.7378  -0.7242  -0.7130  -0.6971  -0.6911  -0.6844  -0.6813
 -0.6736  -0.6639  -0.6565  -0.6494  -0.6381  -0.6310  -0.6216  -0.6160
 -0.6111  -0.5995  -0.5933  -0.5770  -0.5710  -0.5658  -0.5600  -0.5576
 -0.5488  -0.5335  -0.5310  -0.5263  -0.5151  -0.5119  -0.5082  -0.5015
 -0.4846  -0.4784  -0.4770  -0.4735  -0.4698  -0.4665  -0.4594  -0.4482
 -0.4315  -0.3956  -0.3850  -0.3718  -0.3514  -0.2987  -0.2876  -0.2188

          Ground-State Mulliken Net Atomic Charges

     Atom                 Charge (a.u.)
  ----------------------------------------
      1 C                    -0.070760
      2 C                    -0.248955
      3 S                    -0.132277
      4 C                    -0.051639
      5 H                     0.194996
      6 C                    -0.048573
      7 C                     0.216924
      8 C                     0.232396
      9 C                    -0.073734
     10 C                    -0.014630
     11 O                    -0.333982
     12 O                    -0.343728
     13 C                    -0.082794
     14 H                     0.120093
     15 H                     0.092057
     16 H                     0.093278
     17 C                    -0.089877
     18 H                     0.124847
     19 H                     0.092992
     20 H                     0.092443
     21 C                    -0.337914
     22 S                    -0.104360
     23 C                     0.150128
     24 H                     0.198610
     25 C                     0.019023
     26 S                     0.078633
     27 C                    -0.217901
     28 C                    -0.098221
     29 C                    -0.090339
     30 S                     0.000873
     31 C                    -0.162115
     32 C                     0.408215
     33 F                    -0.208158
     34 C                     0.441794
     35 O                    -0.460097
     36 O                    -0.300628
     37 C                    -0.058627
     38 H                     0.121356
     39 H                     0.095196
     40 H                     0.094967
     41 H                     0.216382
     42 H                     0.118881
     43 H                     0.116612
     44 H                     0.208615
  ----------------------------------------
  Sum of atomic charges =     0.000000

                    Cartesian Multipole Moments
 -----------------------------------------------------------------
    Charge (ESU x 10^10)
                 0.0000
    Dipole Moment (Debye)
         X       1.5351      Y       1.3284      Z       2.9248
       Tot       3.5603
    Quadrupole Moments (Debye-Ang)
        XX    -192.7319     XY       3.3838     YY    -170.8076
        XZ     -11.8217     YZ      -2.9305     ZZ    -195.1707

 Total job time:  378.50s(wall), 11007.36s(cpu)
        *  Thank you very much for using Q-Chem.  Have a nice day.  *
