 Q-Chem 5.4, Q-Chem, Inc., Pleasanton, CA (2021)
 Q-Chem 5.4.0 for Intel X86 EM64T Linux

User input:
--------------------------------------------------------------
$molecule
0 1
C	-0.172904	-8.517702	-0.270358
C	0.524688	-7.641575	0.548363
S	-1.180599	-7.638634	-1.445750
C	0.282727	-6.264785	0.259951
H	1.203014	-7.966081	1.347559
C	-0.632972	-6.072714	-0.833868
C	-1.013580	-4.787049	-1.248701
C	0.845068	-5.162801	0.965673
C	0.460946	-3.874817	0.553357
C	-0.453541	-3.683952	-0.543470
O	1.714812	-5.499772	1.958276
O	-1.888193	-4.459055	-2.245053
C	-2.033848	-5.329063	-3.360989
H	-2.584788	-4.755694	-4.130667
H	-2.624118	-6.238095	-3.112380
H	-1.047748	-5.637262	-3.770895
C	2.013896	-4.572261	2.994272
H	2.570853	-5.139743	3.763700
H	1.090625	-4.153131	3.448815
H	2.657717	-3.739531	2.636780
C	-0.694943	-2.306654	-0.827659
S	0.999993	-2.306501	1.174750
C	-0.000000	-1.435185	-0.000000
H	-1.370385	-1.978138	-1.627541
C	0.000000	0.000000	0.000000
S	0.309893	0.850039	1.507541
C	0.847011	2.328006	0.718873
C	0.310046	0.849645	-1.067872
C	0.783331	2.156746	-0.686410
S	0.229416	0.619785	-2.805516
C	0.823328	2.267711	-3.054530
C	1.063278	2.934142	-1.862551
F	1.515925	4.191824	-1.819088
C	0.978337	2.688069	-4.456084
O	0.722535	1.961921	-5.406510
O	1.433229	3.959697	-4.569225
C	1.607467	4.423139	-5.916207
H	1.977475	5.460158	-5.833064
H	0.647388	4.396602	-6.470168
H	2.339490	3.791823	-6.459293
H	1.161798	3.197007	1.306486
H	-0.859314	-9.143623	0.311979
H	0.508666	-9.149441	-0.852097
H	-0.822504	-1.443175	0.699874
$end

$rem
JOBTYPE		SP
EXCHANGE	HF
CORRELATION	pRIMP2
BASIS		cc-pvtz
METHOD		rimp2
AUX_BASIS	rimp2-cc-pvtz
SOLVENT_METHOD	PCM
PURECART	11111
SYMMETRY	false
MEM_TOTAL	110000
SCF_CONVERGENCE = 6
THRESH=10
GUI = 2
$end

$solvent
dielectric 4.90
$end
--------------------------------------------------------------

             Standard Nuclear Orientation (Angstroms)
    I     Atom           X                Y                Z
 ----------------------------------------------------------------
    1      C      -0.1729040000    -8.5177020000    -0.2703580000
    2      C       0.5246880000    -7.6415750000     0.5483630000
    3      S      -1.1805990000    -7.6386340000    -1.4457500000
    4      C       0.2827270000    -6.2647850000     0.2599510000
    5      H       1.2030140000    -7.9660810000     1.3475590000
    6      C      -0.6329720000    -6.0727140000    -0.8338680000
    7      C      -1.0135800000    -4.7870490000    -1.2487010000
    8      C       0.8450680000    -5.1628010000     0.9656730000
    9      C       0.4609460000    -3.8748170000     0.5533570000
   10      C      -0.4535410000    -3.6839520000    -0.5434700000
   11      O       1.7148120000    -5.4997720000     1.9582760000
   12      O      -1.8881930000    -4.4590550000    -2.2450530000
   13      C      -2.0338480000    -5.3290630000    -3.3609890000
   14      H      -2.5847880000    -4.7556940000    -4.1306670000
   15      H      -2.6241180000    -6.2380950000    -3.1123800000
   16      H      -1.0477480000    -5.6372620000    -3.7708950000
   17      C       2.0138960000    -4.5722610000     2.9942720000
   18      H       2.5708530000    -5.1397430000     3.7637000000
   19      H       1.0906250000    -4.1531310000     3.4488150000
   20      H       2.6577170000    -3.7395310000     2.6367800000
   21      C      -0.6949430000    -2.3066540000    -0.8276590000
   22      S       0.9999930000    -2.3065010000     1.1747500000
   23      C       0.0000000000    -1.4351850000     0.0000000000
   24      H      -1.3703850000    -1.9781380000    -1.6275410000
   25      C       0.0000000000     0.0000000000     0.0000000000
   26      S       0.3098930000     0.8500390000     1.5075410000
   27      C       0.8470110000     2.3280060000     0.7188730000
   28      C       0.3100460000     0.8496450000    -1.0678720000
   29      C       0.7833310000     2.1567460000    -0.6864100000
   30      S       0.2294160000     0.6197850000    -2.8055160000
   31      C       0.8233280000     2.2677110000    -3.0545300000
   32      C       1.0632780000     2.9341420000    -1.8625510000
   33      F       1.5159250000     4.1918240000    -1.8190880000
   34      C       0.9783370000     2.6880690000    -4.4560840000
   35      O       0.7225350000     1.9619210000    -5.4065100000
   36      O       1.4332290000     3.9596970000    -4.5692250000
   37      C       1.6074670000     4.4231390000    -5.9162070000
   38      H       1.9774750000     5.4601580000    -5.8330640000
   39      H       0.6473880000     4.3966020000    -6.4701680000
   40      H       2.3394900000     3.7918230000    -6.4592930000
   41      H       1.1617980000     3.1970070000     1.3064860000
   42      H      -0.8593140000    -9.1436230000     0.3119790000
   43      H       0.5086660000    -9.1494410000    -0.8520970000
   44      H      -0.8225040000    -1.4431750000     0.6998740000
 ----------------------------------------------------------------

   11   -2755.3357057416      8.44e-07  Convergence criterion met
 Total energy in the final basis set =    -2755.3357057416
        RIMP2         total energy =     -2760.4262910831 a.u.

                    Orbital Energies (a.u.)
 --------------------------------------------------------------

 Alpha MOs
 -- Occupied --
-92.0160 -91.9982 -91.9795 -91.9578 -26.3435 -20.6151 -20.5871 -20.5869
-20.5617 -11.4098 -11.3826 -11.3101 -11.3090 -11.3073 -11.3016 -11.2984
-11.2977 -11.2890 -11.2853 -11.2849 -11.2835 -11.2822 -11.2798 -11.2735
-11.2724 -11.2580 -11.2576 -11.2492 -11.2359  -9.0148  -8.9983  -8.9817
 -8.9604  -6.6956  -6.6950  -6.6945  -6.6794  -6.6786  -6.6775  -6.6628
 -6.6619  -6.6606  -6.6416  -6.6407  -6.6397  -1.6606  -1.4676  -1.4105
 -1.4087  -1.3703  -1.2298  -1.2028  -1.1735  -1.1380  -1.0998  -1.0462
 -1.0448  -1.0245  -1.0040  -0.9973  -0.9631  -0.9593  -0.9483  -0.9404
 -0.8940  -0.8691  -0.8660  -0.8117  -0.8004  -0.7890  -0.7843  -0.7674
 -0.7568  -0.7376  -0.7254  -0.7157  -0.6979  -0.6871  -0.6848  -0.6801
 -0.6741  -0.6612  -0.6563  -0.6485  -0.6362  -0.6309  -0.6196  -0.6146
 -0.6120  -0.5993  -0.5922  -0.5758  -0.5714  -0.5646  -0.5584  -0.5528
 -0.5474  -0.5340  -0.5310  -0.5286  -0.5136  -0.5079  -0.5077  -0.5011
 -0.4851  -0.4812  -0.4765  -0.4746  -0.4727  -0.4687  -0.4594  -0.4459
 -0.4290  -0.3958  -0.3857  -0.3699  -0.3513  -0.3002  -0.2885  -0.2178

          Ground-State Mulliken Net Atomic Charges

     Atom                 Charge (a.u.)
  ----------------------------------------
      1 C                    -0.069964
      2 C                    -0.263554
      3 S                    -0.135973
      4 C                    -0.043471
      5 H                     0.192994
      6 C                    -0.052136
      7 C                     0.222758
      8 C                     0.222050
      9 C                    -0.076287
     10 C                    -0.049241
     11 O                    -0.334564
     12 O                    -0.343715
     13 C                    -0.082767
     14 H                     0.120532
     15 H                     0.092002
     16 H                     0.093075
     17 C                    -0.087673
     18 H                     0.123643
     19 H                     0.091934
     20 H                     0.090056
     21 C                    -0.271270
     22 S                    -0.077405
     23 C                     0.075799
     24 H                     0.209835
     25 C                    -0.103370
     26 S                     0.075376
     27 C                    -0.178111
     28 C                     0.050870
     29 C                    -0.118944
     30 S                     0.004642
     31 C                    -0.155941
     32 C                     0.400079
     33 F                    -0.206901
     34 C                     0.444916
     35 O                    -0.460378
     36 O                    -0.300763
     37 C                    -0.058441
     38 H                     0.121438
     39 H                     0.095113
     40 H                     0.095262
     41 H                     0.218634
     42 H                     0.116866
     43 H                     0.114626
     44 H                     0.198369
  ----------------------------------------
  Sum of atomic charges =     0.000000

                    Cartesian Multipole Moments
 -----------------------------------------------------------------
    Charge (ESU x 10^10)
                 0.0000
    Dipole Moment (Debye)
         X       0.5697      Y       2.8318      Z       3.4567
       Tot       4.5047
    Quadrupole Moments (Debye-Ang)
        XX    -197.6468     XY       2.7821     YY    -177.6736
        XZ       3.7210     YZ      -9.9795     ZZ    -189.9677

 Total job time:  350.32s(wall), 11001.00s(cpu)
        *  Thank you very much for using Q-Chem.  Have a nice day.  *
