 Q-Chem 5.4, Q-Chem, Inc., Pleasanton, CA (2021)
 Q-Chem 5.4.0 for Intel X86 EM64T Linux

User input:
--------------------------------------------------------------
$molecule
0 1
C	0.296276	-8.517702	-0.123330
C	-0.631143	-7.641575	0.421494
S	1.628795	-7.638634	-0.911611
C	-0.305097	-6.264785	0.233291
H	-1.535988	-7.966081	0.950737
C	0.931114	-6.072714	-0.478557
C	1.405737	-4.787049	-0.781346
C	-1.097747	-5.162801	0.664542
C	-0.624993	-3.874817	0.357854
C	0.613970	-3.683952	-0.352278
O	-2.226300	-5.499772	1.348709
O	2.538827	-4.459055	-1.469658
C	3.663102	-5.329063	-1.419319
H	4.516756	-4.755694	-1.828237
H	3.520769	-6.238095	-2.043793
H	3.895546	-5.637262	-0.377021
C	-3.298492	-4.572261	1.463351
H	-4.152945	-5.139743	1.878237
H	-3.585804	-4.153131	0.475176
H	-3.058230	-3.739531	2.159469
C	0.935761	-2.306654	-0.540664
S	-1.330550	-2.306501	0.780808
C	0.000000	-1.435185	0.000000
H	1.840780	-1.978138	-1.066946
C	0.000000	0.000000	0.000000
S	0.000474	0.904764	1.507541
C	-0.000295	2.477305	0.718873
C	0.000752	0.904447	-1.067872
C	-0.001560	2.294593	-0.686410
S	0.003602	0.660872	-2.805516
C	-0.001928	2.412546	-3.054530
C	-0.004381	3.120854	-1.862551
F	-0.009185	4.457503	-1.819088
C	-0.000038	2.860570	-4.456084
O	0.007944	2.090724	-5.406510
O	-0.007501	4.211092	-4.569225
C	-0.002278	4.706177	-5.916207
H	-0.009265	5.807207	-5.833064
H	-0.895381	4.352875	-6.470168
H	0.901521	4.363301	-6.459293
H	-0.001708	3.401562	1.306486
H	-0.158021	-9.143623	-0.900433
H	0.750822	-9.149441	0.648903
H	-0.546415	-1.443175	-0.931540
$end

$rem
JOBTYPE		SP
EXCHANGE	HF
CORRELATION	pRIMP2
BASIS		cc-pvtz
METHOD		rimp2
AUX_BASIS	rimp2-cc-pvtz
SOLVENT_METHOD	PCM
PURECART	11111
SYMMETRY	false
MEM_TOTAL	110000
SCF_CONVERGENCE = 6
THRESH=10
GUI = 2
$end

$solvent
dielectric 4.90
$end
--------------------------------------------------------------

             Standard Nuclear Orientation (Angstroms)
    I     Atom           X                Y                Z
 ----------------------------------------------------------------
    1      C       0.2962760000    -8.5177020000    -0.1233300000
    2      C      -0.6311430000    -7.6415750000     0.4214940000
    3      S       1.6287950000    -7.6386340000    -0.9116110000
    4      C      -0.3050970000    -6.2647850000     0.2332910000
    5      H      -1.5359880000    -7.9660810000     0.9507370000
    6      C       0.9311140000    -6.0727140000    -0.4785570000
    7      C       1.4057370000    -4.7870490000    -0.7813460000
    8      C      -1.0977470000    -5.1628010000     0.6645420000
    9      C      -0.6249930000    -3.8748170000     0.3578540000
   10      C       0.6139700000    -3.6839520000    -0.3522780000
   11      O      -2.2263000000    -5.4997720000     1.3487090000
   12      O       2.5388270000    -4.4590550000    -1.4696580000
   13      C       3.6631020000    -5.3290630000    -1.4193190000
   14      H       4.5167560000    -4.7556940000    -1.8282370000
   15      H       3.5207690000    -6.2380950000    -2.0437930000
   16      H       3.8955460000    -5.6372620000    -0.3770210000
   17      C      -3.2984920000    -4.5722610000     1.4633510000
   18      H      -4.1529450000    -5.1397430000     1.8782370000
   19      H      -3.5858040000    -4.1531310000     0.4751760000
   20      H      -3.0582300000    -3.7395310000     2.1594690000
   21      C       0.9357610000    -2.3066540000    -0.5406640000
   22      S      -1.3305500000    -2.3065010000     0.7808080000
   23      C       0.0000000000    -1.4351850000     0.0000000000
   24      H       1.8407800000    -1.9781380000    -1.0669460000
   25      C       0.0000000000     0.0000000000     0.0000000000
   26      S       0.0004740000     0.9047640000     1.5075410000
   27      C      -0.0002950000     2.4773050000     0.7188730000
   28      C       0.0007520000     0.9044470000    -1.0678720000
   29      C      -0.0015600000     2.2945930000    -0.6864100000
   30      S       0.0036020000     0.6608720000    -2.8055160000
   31      C      -0.0019280000     2.4125460000    -3.0545300000
   32      C      -0.0043810000     3.1208540000    -1.8625510000
   33      F      -0.0091850000     4.4575030000    -1.8190880000
   34      C      -0.0000380000     2.8605700000    -4.4560840000
   35      O       0.0079440000     2.0907240000    -5.4065100000
   36      O      -0.0075010000     4.2110920000    -4.5692250000
   37      C      -0.0022780000     4.7061770000    -5.9162070000
   38      H      -0.0092650000     5.8072070000    -5.8330640000
   39      H      -0.8953810000     4.3528750000    -6.4701680000
   40      H       0.9015210000     4.3633010000    -6.4592930000
   41      H      -0.0017080000     3.4015620000     1.3064860000
   42      H      -0.1580210000    -9.1436230000    -0.9004330000
   43      H       0.7508220000    -9.1494410000     0.6489030000
   44      H      -0.5464150000    -1.4431750000    -0.9315400000
 ----------------------------------------------------------------

   11   -2755.3475109477      7.16e-07  Convergence criterion met
 Total energy in the final basis set =    -2755.3475109477
        RIMP2         total energy =     -2760.4356986960 a.u.

                    Orbital Energies (a.u.)
 --------------------------------------------------------------

 Alpha MOs
 -- Occupied --
-92.0128 -91.9996 -91.9795 -91.9582 -26.3442 -20.6153 -20.5874 -20.5871
-20.5618 -11.4100 -11.3836 -11.3091 -11.3082 -11.3079 -11.3048 -11.3008
-11.2987 -11.2892 -11.2852 -11.2848 -11.2835 -11.2827 -11.2815 -11.2729
-11.2724 -11.2584 -11.2579 -11.2497 -11.2371  -9.0115  -8.9997  -8.9816
 -8.9608  -6.6923  -6.6917  -6.6912  -6.6807  -6.6800  -6.6789  -6.6627
 -6.6618  -6.6605  -6.6420  -6.6411  -6.6401  -1.6612  -1.4678  -1.4107
 -1.4089  -1.3705  -1.2297  -1.2029  -1.1737  -1.1370  -1.1010  -1.0463
 -1.0461  -1.0234  -1.0039  -0.9976  -0.9623  -0.9594  -0.9487  -0.9412
 -0.8939  -0.8712  -0.8648  -0.8114  -0.7980  -0.7900  -0.7847  -0.7681
 -0.7585  -0.7360  -0.7260  -0.7096  -0.7008  -0.6954  -0.6852  -0.6801
 -0.6744  -0.6650  -0.6559  -0.6487  -0.6359  -0.6306  -0.6201  -0.6149
 -0.6121  -0.5989  -0.5925  -0.5775  -0.5710  -0.5655  -0.5584  -0.5528
 -0.5476  -0.5332  -0.5315  -0.5265  -0.5130  -0.5085  -0.5075  -0.5021
 -0.4853  -0.4817  -0.4762  -0.4745  -0.4693  -0.4688  -0.4617  -0.4468
 -0.4259  -0.3987  -0.3857  -0.3702  -0.3505  -0.3011  -0.2895  -0.2203

          Ground-State Mulliken Net Atomic Charges

     Atom                 Charge (a.u.)
  ----------------------------------------
      1 C                    -0.070304
      2 C                    -0.259061
      3 S                    -0.135173
      4 C                    -0.044617
      5 H                     0.193390
      6 C                    -0.052353
      7 C                     0.224675
      8 C                     0.226651
      9 C                    -0.077374
     10 C                    -0.053935
     11 O                    -0.334847
     12 O                    -0.343019
     13 C                    -0.082741
     14 H                     0.120292
     15 H                     0.092148
     16 H                     0.092607
     17 C                    -0.086836
     18 H                     0.123419
     19 H                     0.092974
     20 H                     0.090131
     21 C                    -0.254002
     22 S                    -0.073208
     23 C                     0.065266
     24 H                     0.209362
     25 C                    -0.077203
     26 S                     0.089127
     27 C                    -0.187492
     28 C                     0.013303
     29 C                    -0.112549
     30 S                     0.002049
     31 C                    -0.156320
     32 C                     0.396977
     33 F                    -0.206073
     34 C                     0.445089
     35 O                    -0.460885
     36 O                    -0.300630
     37 C                    -0.058630
     38 H                     0.121538
     39 H                     0.095253
     40 H                     0.095171
     41 H                     0.217277
     42 H                     0.117479
     43 H                     0.115034
     44 H                     0.188039
  ----------------------------------------
  Sum of atomic charges =     0.000000

                    Cartesian Multipole Moments
 -----------------------------------------------------------------
    Charge (ESU x 10^10)
                -0.0000
    Dipole Moment (Debye)
         X      -0.4154      Y       2.7031      Z       2.5424
       Tot       3.7340
    Quadrupole Moments (Debye-Ang)
        XX    -183.9473     XY       3.4285     YY    -174.2716
        XZ      -3.4785     YZ      -9.7208     ZZ    -205.7982

 Total job time:  323.11s(wall), 10529.73s(cpu)
        *  Thank you very much for using Q-Chem.  Have a nice day.  *
