 Q-Chem 5.4, Q-Chem, Inc., Pleasanton, CA (2021)
 Q-Chem 5.4.0 for Intel X86 EM64T Linux

User input:
--------------------------------------------------------------
$molecule
0 1
C	0.147685	-8.517702	-0.284919
C	-0.212552	-7.641575	0.728574
S	0.661757	-7.638634	-1.745304
C	-0.083761	-6.264785	0.374824
H	-0.565513	-7.966081	1.715621
C	0.405665	-6.072714	-0.965104
C	0.574617	-4.787049	-1.502136
C	-0.413763	-5.162801	1.214687
C	-0.248748	-3.874817	0.675870
C	0.243888	-3.683952	-0.664513
O	-0.838511	-5.499772	2.464209
O	1.000176	-4.459055	-2.757750
C	1.893778	-5.329063	-3.441858
H	2.284868	-4.755694	-4.303826
H	1.383341	-6.238095	-3.828743
H	2.741817	-5.637262	-2.792824
C	-1.586168	-4.572261	3.241222
H	-1.974033	-5.139743	4.108274
H	-2.441448	-4.153131	2.668916
H	-0.954660	-3.739531	3.620041
C	0.369302	-2.306654	-1.015668
S	-0.517367	-2.306501	1.453394
C	-0.000000	-1.435185	-0.000000
H	0.724300	-1.978138	-2.000559
C	0.000000	0.000000	0.000000
S	0.581934	0.692785	1.507541
C	1.592155	1.897915	0.718873
C	0.581944	0.692363	-1.067872
C	1.473741	1.758764	-0.686410
S	0.427560	0.503942	-2.805516
C	1.549278	1.849357	-3.054530
C	2.002690	2.393529	-1.862551
F	2.858191	3.420549	-1.819088
C	1.838710	2.191348	-4.456084
O	1.349977	1.596481	-5.406510
O	2.701091	3.230705	-4.569225
C	3.023327	3.606605	-5.916207
H	3.725703	4.454534	-5.833064
H	2.112072	3.910035	-6.470168
H	3.495281	2.762996	-6.459293
H	2.185174	2.606846	1.306486
H	-0.699838	-9.143623	-0.588198
H	0.992270	-9.149441	0.014470
H	-1.017360	-1.443175	-0.362373
$end

$rem
JOBTYPE		SP
EXCHANGE	HF
CORRELATION	pRIMP2
BASIS		cc-pvtz
METHOD		rimp2
AUX_BASIS	rimp2-cc-pvtz
SOLVENT_METHOD	PCM
PURECART	11111
SYMMETRY	false
MEM_TOTAL	110000
SCF_CONVERGENCE = 6
THRESH=10
GUI = 2
$end

$solvent
dielectric 4.90
$end
--------------------------------------------------------------

             Standard Nuclear Orientation (Angstroms)
    I     Atom           X                Y                Z
 ----------------------------------------------------------------
    1      C       0.1476850000    -8.5177020000    -0.2849190000
    2      C      -0.2125520000    -7.6415750000     0.7285740000
    3      S       0.6617570000    -7.6386340000    -1.7453040000
    4      C      -0.0837610000    -6.2647850000     0.3748240000
    5      H      -0.5655130000    -7.9660810000     1.7156210000
    6      C       0.4056650000    -6.0727140000    -0.9651040000
    7      C       0.5746170000    -4.7870490000    -1.5021360000
    8      C      -0.4137630000    -5.1628010000     1.2146870000
    9      C      -0.2487480000    -3.8748170000     0.6758700000
   10      C       0.2438880000    -3.6839520000    -0.6645130000
   11      O      -0.8385110000    -5.4997720000     2.4642090000
   12      O       1.0001760000    -4.4590550000    -2.7577500000
   13      C       1.8937780000    -5.3290630000    -3.4418580000
   14      H       2.2848680000    -4.7556940000    -4.3038260000
   15      H       1.3833410000    -6.2380950000    -3.8287430000
   16      H       2.7418170000    -5.6372620000    -2.7928240000
   17      C      -1.5861680000    -4.5722610000     3.2412220000
   18      H      -1.9740330000    -5.1397430000     4.1082740000
   19      H      -2.4414480000    -4.1531310000     2.6689160000
   20      H      -0.9546600000    -3.7395310000     3.6200410000
   21      C       0.3693020000    -2.3066540000    -1.0156680000
   22      S      -0.5173670000    -2.3065010000     1.4533940000
   23      C       0.0000000000    -1.4351850000     0.0000000000
   24      H       0.7243000000    -1.9781380000    -2.0005590000
   25      C       0.0000000000     0.0000000000     0.0000000000
   26      S       0.5819340000     0.6927850000     1.5075410000
   27      C       1.5921550000     1.8979150000     0.7188730000
   28      C       0.5819440000     0.6923630000    -1.0678720000
   29      C       1.4737410000     1.7587640000    -0.6864100000
   30      S       0.4275600000     0.5039420000    -2.8055160000
   31      C       1.5492780000     1.8493570000    -3.0545300000
   32      C       2.0026900000     2.3935290000    -1.8625510000
   33      F       2.8581910000     3.4205490000    -1.8190880000
   34      C       1.8387100000     2.1913480000    -4.4560840000
   35      O       1.3499770000     1.5964810000    -5.4065100000
   36      O       2.7010910000     3.2307050000    -4.5692250000
   37      C       3.0233270000     3.6066050000    -5.9162070000
   38      H       3.7257030000     4.4545340000    -5.8330640000
   39      H       2.1120720000     3.9100350000    -6.4701680000
   40      H       3.4952810000     2.7629960000    -6.4592930000
   41      H       2.1851740000     2.6068460000     1.3064860000
   42      H      -0.6998380000    -9.1436230000    -0.5881980000
   43      H       0.9922700000    -9.1494410000     0.0144700000
   44      H      -1.0173600000    -1.4431750000    -0.3623730000
 ----------------------------------------------------------------

   11   -2755.3066406537      7.82e-07  Convergence criterion met
 Total energy in the final basis set =    -2755.3066406537
        RIMP2         total energy =     -2760.4072662556 a.u.

                    Orbital Energies (a.u.)
 --------------------------------------------------------------

 Alpha MOs
 -- Occupied --
-92.0117 -92.0030 -91.9798 -91.9569 -26.3449 -20.6157 -20.5868 -20.5866
-20.5622 -11.4105 -11.3846 -11.3146 -11.3088 -11.3069 -11.3050 -11.2989
-11.2938 -11.2895 -11.2868 -11.2847 -11.2838 -11.2820 -11.2774 -11.2726
-11.2708 -11.2575 -11.2555 -11.2485 -11.2343  -9.0110  -9.0031  -8.9819
 -8.9595  -6.6917  -6.6909  -6.6905  -6.6841  -6.6833  -6.6823  -6.6631
 -6.6622  -6.6610  -6.6407  -6.6398  -6.6388  -1.6619  -1.4682  -1.4102
 -1.4084  -1.3709  -1.2336  -1.2020  -1.1727  -1.1388  -1.0997  -1.0478
 -1.0456  -1.0253  -1.0027  -0.9971  -0.9638  -0.9595  -0.9483  -0.9413
 -0.8937  -0.8712  -0.8630  -0.8112  -0.8003  -0.7908  -0.7828  -0.7664
 -0.7581  -0.7366  -0.7267  -0.7119  -0.6988  -0.6933  -0.6855  -0.6811
 -0.6747  -0.6633  -0.6562  -0.6483  -0.6383  -0.6307  -0.6189  -0.6144
 -0.6120  -0.6003  -0.5929  -0.5782  -0.5709  -0.5660  -0.5583  -0.5563
 -0.5402  -0.5336  -0.5306  -0.5263  -0.5122  -0.5101  -0.5074  -0.5006
 -0.4857  -0.4819  -0.4773  -0.4743  -0.4698  -0.4644  -0.4586  -0.4458
 -0.4305  -0.3940  -0.3841  -0.3694  -0.3505  -0.3021  -0.2877  -0.2149

          Ground-State Mulliken Net Atomic Charges

     Atom                 Charge (a.u.)
  ----------------------------------------
      1 C                    -0.069657
      2 C                    -0.268654
      3 S                    -0.138662
      4 C                    -0.045611
      5 H                     0.192248
      6 C                    -0.053941
      7 C                     0.227154
      8 C                     0.229547
      9 C                    -0.072155
     10 C                    -0.048307
     11 O                    -0.334687
     12 O                    -0.343823
     13 C                    -0.083144
     14 H                     0.120690
     15 H                     0.092404
     16 H                     0.092613
     17 C                    -0.087948
     18 H                     0.124329
     19 H                     0.092537
     20 H                     0.089504
     21 C                    -0.287294
     22 S                    -0.102276
     23 C                     0.090457
     24 H                     0.204530
     25 C                    -0.070649
     26 S                     0.099532
     27 C                    -0.188331
     28 C                    -0.030249
     29 C                    -0.085998
     30 S                     0.028112
     31 C                    -0.160783
     32 C                     0.402239
     33 F                    -0.205523
     34 C                     0.446104
     35 O                    -0.461237
     36 O                    -0.300930
     37 C                    -0.058351
     38 H                     0.121644
     39 H                     0.095312
     40 H                     0.095185
     41 H                     0.217374
     42 H                     0.116226
     43 H                     0.113871
     44 H                     0.206600
  ----------------------------------------
  Sum of atomic charges =     0.000000

                    Cartesian Multipole Moments
 -----------------------------------------------------------------
    Charge (ESU x 10^10)
                -0.0000
    Dipole Moment (Debye)
         X       1.3815      Y       2.8683      Z       2.6760
       Tot       4.1589
    Quadrupole Moments (Debye-Ang)
        XX    -187.7333     XY       9.4701     YY    -185.1284
        XZ     -13.9260     YZ      -9.4643     ZZ    -194.5159

 Total job time:  346.18s(wall), 10230.93s(cpu)
        *  Thank you very much for using Q-Chem.  Have a nice day.  *
