 Q-Chem 5.4, Q-Chem, Inc., Pleasanton, CA (2021)
 Q-Chem 5.4.0 for Intel X86 EM64T Linux

User input:
--------------------------------------------------------------
$molecule
0 1
C	0.041330	-8.517702	-0.318247
C	0.049453	-7.641575	0.757333
S	0.024919	-7.638634	-1.866383
C	0.049488	-6.264785	0.380867
H	0.055368	-7.966081	1.805573
C	0.051115	-6.072714	-1.045647
C	0.026203	-4.787049	-1.608077
C	0.026637	-5.162801	1.282948
C	-0.002586	-3.874817	0.720187
C	0.001903	-3.683952	-0.707853
O	0.054867	-5.499772	2.602386
O	-0.003348	-4.459055	-2.933517
C	0.602384	-5.329063	-3.881999
H	0.675079	-4.755694	-4.825744
H	-0.009592	-6.238095	-4.070972
H	1.621263	-5.637262	-3.562152
C	-0.381947	-4.572261	3.588253
H	-0.449872	-5.139743	4.535674
H	-1.381388	-4.153131	3.342986
H	0.341040	-3.739531	3.728239
C	-0.000348	-2.306654	-1.080725
S	0.010924	-2.306501	1.542694
C	-0.000000	-1.435185	-0.000000
H	-0.003612	-1.978138	-2.127635
C	0.000000	0.000000	0.000000
S	0.783786	0.451972	1.507541
C	2.145261	1.238908	0.718873
C	0.783650	0.451572	-1.067872
C	1.986396	1.148648	-0.686410
S	0.574133	0.327317	-2.805516
C	2.088363	1.207943	-3.054530
C	2.700548	1.564221	-1.862551
F	3.855718	2.236706	-1.819088
C	2.477307	1.430318	-4.456084
O	1.814592	1.038482	-5.406510
O	3.643162	2.112042	-4.569225
C	4.074530	2.355061	-5.916207
H	5.024556	2.911627	-5.833064
H	3.322010	2.951860	-6.470168
H	4.229490	1.400910	-6.459293
H	2.944986	1.702260	1.306486
H	-0.858809	-9.143623	-0.313367
H	0.937378	-9.149441	-0.325780
H	-1.079945	-1.443175	0.007439
$end

$rem
JOBTYPE		SP
EXCHANGE	HF
CORRELATION	pRIMP2
BASIS		cc-pvtz
METHOD		rimp2
AUX_BASIS	rimp2-cc-pvtz
SOLVENT_METHOD	PCM
PURECART	11111
SYMMETRY	false
MEM_TOTAL	110000
SCF_CONVERGENCE = 6
THRESH=10
GUI = 2
$end

$solvent
dielectric 4.90
$end
--------------------------------------------------------------

             Standard Nuclear Orientation (Angstroms)
    I     Atom           X                Y                Z
 ----------------------------------------------------------------
    1      C       0.0413300000    -8.5177020000    -0.3182470000
    2      C       0.0494530000    -7.6415750000     0.7573330000
    3      S       0.0249190000    -7.6386340000    -1.8663830000
    4      C       0.0494880000    -6.2647850000     0.3808670000
    5      H       0.0553680000    -7.9660810000     1.8055730000
    6      C       0.0511150000    -6.0727140000    -1.0456470000
    7      C       0.0262030000    -4.7870490000    -1.6080770000
    8      C       0.0266370000    -5.1628010000     1.2829480000
    9      C      -0.0025860000    -3.8748170000     0.7201870000
   10      C       0.0019030000    -3.6839520000    -0.7078530000
   11      O       0.0548670000    -5.4997720000     2.6023860000
   12      O      -0.0033480000    -4.4590550000    -2.9335170000
   13      C       0.6023840000    -5.3290630000    -3.8819990000
   14      H       0.6750790000    -4.7556940000    -4.8257440000
   15      H      -0.0095920000    -6.2380950000    -4.0709720000
   16      H       1.6212630000    -5.6372620000    -3.5621520000
   17      C      -0.3819470000    -4.5722610000     3.5882530000
   18      H      -0.4498720000    -5.1397430000     4.5356740000
   19      H      -1.3813880000    -4.1531310000     3.3429860000
   20      H       0.3410400000    -3.7395310000     3.7282390000
   21      C      -0.0003480000    -2.3066540000    -1.0807250000
   22      S       0.0109240000    -2.3065010000     1.5426940000
   23      C       0.0000000000    -1.4351850000     0.0000000000
   24      H      -0.0036120000    -1.9781380000    -2.1276350000
   25      C       0.0000000000     0.0000000000     0.0000000000
   26      S       0.7837860000     0.4519720000     1.5075410000
   27      C       2.1452610000     1.2389080000     0.7188730000
   28      C       0.7836500000     0.4515720000    -1.0678720000
   29      C       1.9863960000     1.1486480000    -0.6864100000
   30      S       0.5741330000     0.3273170000    -2.8055160000
   31      C       2.0883630000     1.2079430000    -3.0545300000
   32      C       2.7005480000     1.5642210000    -1.8625510000
   33      F       3.8557180000     2.2367060000    -1.8190880000
   34      C       2.4773070000     1.4303180000    -4.4560840000
   35      O       1.8145920000     1.0384820000    -5.4065100000
   36      O       3.6431620000     2.1120420000    -4.5692250000
   37      C       4.0745300000     2.3550610000    -5.9162070000
   38      H       5.0245560000     2.9116270000    -5.8330640000
   39      H       3.3220100000     2.9518600000    -6.4701680000
   40      H       4.2294900000     1.4009100000    -6.4592930000
   41      H       2.9449860000     1.7022600000     1.3064860000
   42      H      -0.8588090000    -9.1436230000    -0.3133670000
   43      H       0.9373780000    -9.1494410000    -0.3257800000
   44      H      -1.0799450000    -1.4431750000     0.0074390000
 ----------------------------------------------------------------

   11   -2755.2530643633      8.34e-07  Convergence criterion met
 Total energy in the final basis set =    -2755.2530643633
        RIMP2         total energy =     -2760.3638973405 a.u.

                    Orbital Energies (a.u.)
 --------------------------------------------------------------

 Alpha MOs
 -- Occupied --
-92.0118 -92.0108 -91.9772 -91.9537 -26.3470 -20.6164 -20.5855 -20.5840
-20.5629 -11.4116 -11.3880 -11.3321 -11.3185 -11.3073 -11.3016 -11.2997
-11.2900 -11.2889 -11.2834 -11.2812 -11.2803 -11.2729 -11.2713 -11.2704
-11.2660 -11.2545 -11.2490 -11.2453 -11.2267  -9.0119  -9.0108  -8.9795
 -8.9564  -6.6925  -6.6917  -6.6915  -6.6913  -6.6909  -6.6900  -6.6605
 -6.6597  -6.6584  -6.6377  -6.6367  -6.6357  -1.6640  -1.4690  -1.4078
 -1.4067  -1.3717  -1.2415  -1.2001  -1.1701  -1.1415  -1.0977  -1.0503
 -1.0436  -1.0286  -1.0012  -0.9945  -0.9662  -0.9603  -0.9462  -0.9403
 -0.8924  -0.8732  -0.8591  -0.8152  -0.8000  -0.7911  -0.7800  -0.7634
 -0.7587  -0.7366  -0.7287  -0.7153  -0.6976  -0.6916  -0.6863  -0.6812
 -0.6755  -0.6625  -0.6552  -0.6469  -0.6402  -0.6307  -0.6159  -0.6131
 -0.6109  -0.6031  -0.5909  -0.5806  -0.5701  -0.5666  -0.5570  -0.5548
 -0.5367  -0.5342  -0.5311  -0.5226  -0.5137  -0.5094  -0.5063  -0.4984
 -0.4884  -0.4806  -0.4774  -0.4744  -0.4682  -0.4610  -0.4511  -0.4431
 -0.4306  -0.3904  -0.3813  -0.3670  -0.3475  -0.3085  -0.2845  -0.2090

          Ground-State Mulliken Net Atomic Charges

     Atom                 Charge (a.u.)
  ----------------------------------------
      1 C                    -0.068116
      2 C                    -0.290090
      3 S                    -0.146398
      4 C                    -0.040070
      5 H                     0.189500
      6 C                    -0.058401
      7 C                     0.231969
      8 C                     0.220451
      9 C                    -0.072563
     10 C                    -0.064593
     11 O                    -0.335542
     12 O                    -0.345076
     13 C                    -0.083257
     14 H                     0.120385
     15 H                     0.092565
     16 H                     0.092243
     17 C                    -0.088120
     18 H                     0.123572
     19 H                     0.091402
     20 H                     0.088182
     21 C                    -0.232278
     22 S                    -0.102824
     23 C                     0.036013
     24 H                     0.202409
     25 C                    -0.170286
     26 S                     0.103089
     27 C                    -0.131093
     28 C                     0.062273
     29 C                    -0.117154
     30 S                     0.058831
     31 C                    -0.161608
     32 C                     0.401386
     33 F                    -0.203987
     34 C                     0.449723
     35 O                    -0.462444
     36 O                    -0.301158
     37 C                    -0.058156
     38 H                     0.121826
     39 H                     0.095346
     40 H                     0.095360
     41 H                     0.220724
     42 H                     0.113189
     43 H                     0.110756
     44 H                     0.212022
  ----------------------------------------
  Sum of atomic charges =     0.000000

                    Cartesian Multipole Moments
 -----------------------------------------------------------------
    Charge (ESU x 10^10)
                -0.0000
    Dipole Moment (Debye)
         X       3.0545      Y       4.1065      Z       2.5833
       Tot       5.7330
    Quadrupole Moments (Debye-Ang)
        XX    -186.2413     XY       7.8847     YY    -202.8400
        XZ     -11.8353     YZ      -7.2104     ZZ    -187.8790

 Total job time:  350.40s(wall), 11626.95s(cpu)
        *  Thank you very much for using Q-Chem.  Have a nice day.  *
