 Q-Chem 5.4, Q-Chem, Inc., Pleasanton, CA (2021)
 Q-Chem 5.4.0 for Intel X86 EM64T Linux

User input:
--------------------------------------------------------------
$molecule
0 1
C	-0.254945	-8.517702	-0.194917
C	0.680596	-7.641575	0.335839
S	-1.603876	-7.638634	-0.954772
C	0.354585	-6.264785	0.147576
H	1.591356	-7.966081	0.854836
C	-0.879999	-6.072714	-0.567090
C	-1.379534	-4.787049	-0.826731
C	1.124384	-5.162801	0.618405
C	0.622407	-3.874817	0.362333
C	-0.612067	-3.683952	-0.355575
O	2.281166	-5.499772	1.253677
O	-2.542174	-4.459055	-1.463859
C	-3.060718	-5.329063	-2.462679
H	-3.841678	-4.755694	-2.997507
H	-3.530361	-6.238095	-2.027179
H	-2.274283	-5.637262	-3.185132
C	2.916545	-4.572261	2.124902
H	3.703073	-5.139743	2.657438
H	2.204417	-4.153131	2.867810
H	3.399269	-3.739531	1.568770
C	-0.936109	-2.306654	-0.540061
S	1.341474	-2.306501	0.761887
C	-0.000000	-1.435185	-0.000000
H	-1.844392	-1.978138	-1.060690
C	0.000000	0.000000	0.000000
S	0.581934	0.692785	1.507541
C	1.592155	1.897915	0.718873
C	0.581944	0.692363	-1.067872
C	1.473741	1.758764	-0.686410
S	0.427560	0.503942	-2.805516
C	1.549278	1.849357	-3.054530
C	2.002690	2.393529	-1.862551
F	2.858191	3.420549	-1.819088
C	1.838710	2.191348	-4.456084
O	1.349977	1.596481	-5.406510
O	2.701091	3.230705	-4.569225
C	3.023327	3.606605	-5.916207
H	3.725703	4.454534	-5.833064
H	2.112072	3.910035	-6.470168
H	3.495281	2.762996	-6.459293
H	2.185174	2.606846	1.306486
H	-0.700788	-9.143623	0.587067
H	0.186556	-9.149441	-0.974683
H	-0.533530	-1.443175	0.938979
$end

$rem
JOBTYPE		SP
EXCHANGE	HF
CORRELATION	pRIMP2
BASIS		cc-pvtz
METHOD		rimp2
AUX_BASIS	rimp2-cc-pvtz
SOLVENT_METHOD	PCM
PURECART	11111
SYMMETRY	false
MEM_TOTAL	110000
SCF_CONVERGENCE = 6
THRESH=10
GUI = 2
$end

$solvent
dielectric 4.90
$end
--------------------------------------------------------------

             Standard Nuclear Orientation (Angstroms)
    I     Atom           X                Y                Z
 ----------------------------------------------------------------
    1      C      -0.2549450000    -8.5177020000    -0.1949170000
    2      C       0.6805960000    -7.6415750000     0.3358390000
    3      S      -1.6038760000    -7.6386340000    -0.9547720000
    4      C       0.3545850000    -6.2647850000     0.1475760000
    5      H       1.5913560000    -7.9660810000     0.8548360000
    6      C      -0.8799990000    -6.0727140000    -0.5670900000
    7      C      -1.3795340000    -4.7870490000    -0.8267310000
    8      C       1.1243840000    -5.1628010000     0.6184050000
    9      C       0.6224070000    -3.8748170000     0.3623330000
   10      C      -0.6120670000    -3.6839520000    -0.3555750000
   11      O       2.2811660000    -5.4997720000     1.2536770000
   12      O      -2.5421740000    -4.4590550000    -1.4638590000
   13      C      -3.0607180000    -5.3290630000    -2.4626790000
   14      H      -3.8416780000    -4.7556940000    -2.9975070000
   15      H      -3.5303610000    -6.2380950000    -2.0271790000
   16      H      -2.2742830000    -5.6372620000    -3.1851320000
   17      C       2.9165450000    -4.5722610000     2.1249020000
   18      H       3.7030730000    -5.1397430000     2.6574380000
   19      H       2.2044170000    -4.1531310000     2.8678100000
   20      H       3.3992690000    -3.7395310000     1.5687700000
   21      C      -0.9361090000    -2.3066540000    -0.5400610000
   22      S       1.3414740000    -2.3065010000     0.7618870000
   23      C       0.0000000000    -1.4351850000     0.0000000000
   24      H      -1.8443920000    -1.9781380000    -1.0606900000
   25      C       0.0000000000     0.0000000000     0.0000000000
   26      S       0.5819340000     0.6927850000     1.5075410000
   27      C       1.5921550000     1.8979150000     0.7188730000
   28      C       0.5819440000     0.6923630000    -1.0678720000
   29      C       1.4737410000     1.7587640000    -0.6864100000
   30      S       0.4275600000     0.5039420000    -2.8055160000
   31      C       1.5492780000     1.8493570000    -3.0545300000
   32      C       2.0026900000     2.3935290000    -1.8625510000
   33      F       2.8581910000     3.4205490000    -1.8190880000
   34      C       1.8387100000     2.1913480000    -4.4560840000
   35      O       1.3499770000     1.5964810000    -5.4065100000
   36      O       2.7010910000     3.2307050000    -4.5692250000
   37      C       3.0233270000     3.6066050000    -5.9162070000
   38      H       3.7257030000     4.4545340000    -5.8330640000
   39      H       2.1120720000     3.9100350000    -6.4701680000
   40      H       3.4952810000     2.7629960000    -6.4592930000
   41      H       2.1851740000     2.6068460000     1.3064860000
   42      H      -0.7007880000    -9.1436230000     0.5870670000
   43      H       0.1865560000    -9.1494410000    -0.9746830000
   44      H      -0.5335300000    -1.4431750000     0.9389790000
 ----------------------------------------------------------------

   11   -2755.3149668311      7.64e-07  Convergence criterion met
 Total energy in the final basis set =    -2755.3149668311
        RIMP2         total energy =     -2760.4096284227 a.u.

                    Orbital Energies (a.u.)
 --------------------------------------------------------------

 Alpha MOs
 -- Occupied --
-92.0161 -92.0038 -91.9741 -91.9560 -26.3450 -20.6155 -20.5861 -20.5849
-20.5620 -11.4103 -11.3849 -11.3234 -11.3077 -11.3073 -11.3035 -11.2986
-11.2893 -11.2866 -11.2848 -11.2836 -11.2818 -11.2809 -11.2751 -11.2711
-11.2698 -11.2562 -11.2533 -11.2475 -11.2320  -9.0152  -9.0037  -8.9765
 -8.9587  -6.6959  -6.6952  -6.6948  -6.6847  -6.6839  -6.6829  -6.6576
 -6.6567  -6.6554  -6.6399  -6.6390  -6.6380  -1.6621  -1.4680  -1.4086
 -1.4075  -1.3707  -1.2330  -1.2010  -1.1716  -1.1395  -1.0977  -1.0466
 -1.0437  -1.0264  -1.0023  -0.9946  -0.9643  -0.9591  -0.9470  -0.9399
 -0.8919  -0.8704  -0.8629  -0.8153  -0.7983  -0.7882  -0.7828  -0.7657
 -0.7574  -0.7372  -0.7268  -0.7172  -0.6965  -0.6873  -0.6851  -0.6788
 -0.6746  -0.6605  -0.6549  -0.6473  -0.6338  -0.6300  -0.6179  -0.6138
 -0.6113  -0.6008  -0.5909  -0.5756  -0.5706  -0.5629  -0.5569  -0.5533
 -0.5409  -0.5331  -0.5310  -0.5261  -0.5124  -0.5085  -0.5063  -0.4997
 -0.4841  -0.4837  -0.4755  -0.4751  -0.4724  -0.4677  -0.4575  -0.4443
 -0.4235  -0.3960  -0.3846  -0.3677  -0.3499  -0.3056  -0.2870  -0.2169

          Ground-State Mulliken Net Atomic Charges

     Atom                 Charge (a.u.)
  ----------------------------------------
      1 C                    -0.069446
      2 C                    -0.273700
      3 S                    -0.139865
      4 C                    -0.040622
      5 H                     0.191509
      6 C                    -0.053609
      7 C                     0.221347
      8 C                     0.218731
      9 C                    -0.076814
     10 C                    -0.052274
     11 O                    -0.335748
     12 O                    -0.343593
     13 C                    -0.082528
     14 H                     0.119754
     15 H                     0.091732
     16 H                     0.093027
     17 C                    -0.086701
     18 H                     0.122791
     19 H                     0.090839
     20 H                     0.089623
     21 C                    -0.258799
     22 S                    -0.076649
     23 C                     0.017324
     24 H                     0.208519
     25 C                    -0.113130
     26 S                     0.092581
     27 C                    -0.152070
     28 C                     0.063627
     29 C                    -0.107250
     30 S                     0.029876
     31 C                    -0.154921
     32 C                     0.397166
     33 F                    -0.205493
     34 C                     0.446086
     35 O                    -0.461176
     36 O                    -0.301096
     37 C                    -0.058337
     38 H                     0.121479
     39 H                     0.095207
     40 H                     0.095383
     41 H                     0.220369
     42 H                     0.115335
     43 H                     0.113155
     44 H                     0.188361
  ----------------------------------------
  Sum of atomic charges =     0.000000

                    Cartesian Multipole Moments
 -----------------------------------------------------------------
    Charge (ESU x 10^10)
                 0.0000
    Dipole Moment (Debye)
         X       2.0517      Y       3.8630      Z       3.2656
       Tot       5.4586
    Quadrupole Moments (Debye-Ang)
        XX    -187.1116     XY       5.6959     YY    -188.4383
        XZ       4.3802     YZ      -7.2559     ZZ    -194.6720

 Total job time:  354.71s(wall), 10752.90s(cpu)
        *  Thank you very much for using Q-Chem.  Have a nice day.  *
