 Q-Chem 5.4, Q-Chem, Inc., Pleasanton, CA (2021)
 Q-Chem 5.4.0 for Intel X86 EM64T Linux

User input:
--------------------------------------------------------------
$molecule
0 1
C	-0.254945	-8.517702	-0.194917
C	0.680596	-7.641575	0.335839
S	-1.603876	-7.638634	-0.954772
C	0.354585	-6.264785	0.147576
H	1.591356	-7.966081	0.854836
C	-0.879999	-6.072714	-0.567090
C	-1.379534	-4.787049	-0.826731
C	1.124384	-5.162801	0.618405
C	0.622407	-3.874817	0.362333
C	-0.612067	-3.683952	-0.355575
O	2.281166	-5.499772	1.253677
O	-2.542174	-4.459055	-1.463859
C	-3.060718	-5.329063	-2.462679
H	-3.841678	-4.755694	-2.997507
H	-3.530361	-6.238095	-2.027179
H	-2.274283	-5.637262	-3.185132
C	2.916545	-4.572261	2.124902
H	3.703073	-5.139743	2.657438
H	2.204417	-4.153131	2.867810
H	3.399269	-3.739531	1.568770
C	-0.936109	-2.306654	-0.540061
S	1.341474	-2.306501	0.761887
C	-0.000000	-1.435185	-0.000000
H	-1.844392	-1.978138	-1.060690
C	0.000000	0.000000	0.000000
S	0.079327	0.901280	1.507541
C	0.215617	2.467903	0.718873
C	0.079577	0.900940	-1.067872
C	0.198433	2.285998	-0.686410
S	0.061187	0.658044	-2.805516
C	0.208347	2.403534	-3.054530
C	0.267636	3.109360	-1.862551
F	0.379347	4.441341	-1.819088
C	0.249278	2.849688	-4.456084
O	0.190132	2.082076	-5.406510
O	0.359548	4.195721	-4.569225
C	0.407901	4.688467	-5.916207
H	0.496901	5.785916	-5.833064
H	-0.512596	4.414348	-6.470168
H	1.278377	4.268124	-6.459293
H	0.294764	3.388767	1.306486
H	-0.700788	-9.143623	0.587067
H	0.186556	-9.149441	-0.974683
H	-0.533530	-1.443175	0.938979
$end

$rem
JOBTYPE		SP
EXCHANGE	HF
CORRELATION	pRIMP2
BASIS		cc-pvtz
METHOD		rimp2
AUX_BASIS	rimp2-cc-pvtz
SOLVENT_METHOD	PCM
PURECART	11111
SYMMETRY	false
MEM_TOTAL	110000
SCF_CONVERGENCE = 6
THRESH=10
GUI = 2
$end

$solvent
dielectric 4.90
$end
--------------------------------------------------------------

             Standard Nuclear Orientation (Angstroms)
    I     Atom           X                Y                Z
 ----------------------------------------------------------------
    1      C      -0.2549450000    -8.5177020000    -0.1949170000
    2      C       0.6805960000    -7.6415750000     0.3358390000
    3      S      -1.6038760000    -7.6386340000    -0.9547720000
    4      C       0.3545850000    -6.2647850000     0.1475760000
    5      H       1.5913560000    -7.9660810000     0.8548360000
    6      C      -0.8799990000    -6.0727140000    -0.5670900000
    7      C      -1.3795340000    -4.7870490000    -0.8267310000
    8      C       1.1243840000    -5.1628010000     0.6184050000
    9      C       0.6224070000    -3.8748170000     0.3623330000
   10      C      -0.6120670000    -3.6839520000    -0.3555750000
   11      O       2.2811660000    -5.4997720000     1.2536770000
   12      O      -2.5421740000    -4.4590550000    -1.4638590000
   13      C      -3.0607180000    -5.3290630000    -2.4626790000
   14      H      -3.8416780000    -4.7556940000    -2.9975070000
   15      H      -3.5303610000    -6.2380950000    -2.0271790000
   16      H      -2.2742830000    -5.6372620000    -3.1851320000
   17      C       2.9165450000    -4.5722610000     2.1249020000
   18      H       3.7030730000    -5.1397430000     2.6574380000
   19      H       2.2044170000    -4.1531310000     2.8678100000
   20      H       3.3992690000    -3.7395310000     1.5687700000
   21      C      -0.9361090000    -2.3066540000    -0.5400610000
   22      S       1.3414740000    -2.3065010000     0.7618870000
   23      C       0.0000000000    -1.4351850000     0.0000000000
   24      H      -1.8443920000    -1.9781380000    -1.0606900000
   25      C       0.0000000000     0.0000000000     0.0000000000
   26      S       0.0793270000     0.9012800000     1.5075410000
   27      C       0.2156170000     2.4679030000     0.7188730000
   28      C       0.0795770000     0.9009400000    -1.0678720000
   29      C       0.1984330000     2.2859980000    -0.6864100000
   30      S       0.0611870000     0.6580440000    -2.8055160000
   31      C       0.2083470000     2.4035340000    -3.0545300000
   32      C       0.2676360000     3.1093600000    -1.8625510000
   33      F       0.3793470000     4.4413410000    -1.8190880000
   34      C       0.2492780000     2.8496880000    -4.4560840000
   35      O       0.1901320000     2.0820760000    -5.4065100000
   36      O       0.3595480000     4.1957210000    -4.5692250000
   37      C       0.4079010000     4.6884670000    -5.9162070000
   38      H       0.4969010000     5.7859160000    -5.8330640000
   39      H      -0.5125960000     4.4143480000    -6.4701680000
   40      H       1.2783770000     4.2681240000    -6.4592930000
   41      H       0.2947640000     3.3887670000     1.3064860000
   42      H      -0.7007880000    -9.1436230000     0.5870670000
   43      H       0.1865560000    -9.1494410000    -0.9746830000
   44      H      -0.5335300000    -1.4431750000     0.9389790000
 ----------------------------------------------------------------

   11   -2755.3448559352      7.89e-07  Convergence criterion met
 Total energy in the final basis set =    -2755.3448559352
        RIMP2         total energy =     -2760.4320153705 a.u.

                    Orbital Energies (a.u.)
 --------------------------------------------------------------

 Alpha MOs
 -- Occupied --
-92.0169 -91.9976 -91.9775 -91.9579 -26.3434 -20.6150 -20.5869 -20.5868
-20.5616 -11.4096 -11.3824 -11.3104 -11.3089 -11.3070 -11.3018 -11.2981
-11.2978 -11.2890 -11.2850 -11.2845 -11.2831 -11.2824 -11.2798 -11.2727
-11.2726 -11.2580 -11.2576 -11.2494 -11.2363  -9.0155  -8.9978  -8.9798
 -8.9606  -6.6963  -6.6958  -6.6952  -6.6788  -6.6781  -6.6769  -6.6609
 -6.6600  -6.6588  -6.6418  -6.6409  -6.6398  -1.6605  -1.4675  -1.4103
 -1.4087  -1.3702  -1.2286  -1.2027  -1.1735  -1.1377  -1.0997  -1.0459
 -1.0444  -1.0243  -1.0037  -0.9971  -0.9627  -0.9590  -0.9482  -0.9404
 -0.8934  -0.8685  -0.8667  -0.8125  -0.8000  -0.7885  -0.7847  -0.7676
 -0.7567  -0.7377  -0.7254  -0.7166  -0.6976  -0.6861  -0.6846  -0.6797
 -0.6740  -0.6608  -0.6561  -0.6484  -0.6343  -0.6307  -0.6198  -0.6148
 -0.6116  -0.5991  -0.5918  -0.5764  -0.5716  -0.5648  -0.5583  -0.5525
 -0.5491  -0.5329  -0.5309  -0.5270  -0.5132  -0.5077  -0.5068  -0.5014
 -0.4853  -0.4808  -0.4770  -0.4741  -0.4727  -0.4683  -0.4606  -0.4460
 -0.4256  -0.3986  -0.3851  -0.3700  -0.3512  -0.3003  -0.2888  -0.2198

          Ground-State Mulliken Net Atomic Charges

     Atom                 Charge (a.u.)
  ----------------------------------------
      1 C                    -0.070148
      2 C                    -0.261330
      3 S                    -0.135500
      4 C                    -0.043783
      5 H                     0.193167
      6 C                    -0.051865
      7 C                     0.225571
      8 C                     0.224327
      9 C                    -0.077662
     10 C                    -0.061367
     11 O                    -0.334882
     12 O                    -0.343609
     13 C                    -0.082622
     14 H                     0.120246
     15 H                     0.091741
     16 H                     0.093217
     17 C                    -0.086866
     18 H                     0.123127
     19 H                     0.091732
     20 H                     0.090395
     21 C                    -0.243131
     22 S                    -0.075770
     23 C                     0.077203
     24 H                     0.209961
     25 C                    -0.121281
     26 S                     0.089131
     27 C                    -0.185515
     28 C                     0.049820
     29 C                    -0.120301
     30 S                     0.004982
     31 C                    -0.156476
     32 C                     0.401089
     33 F                    -0.207274
     34 C                     0.443822
     35 O                    -0.460538
     36 O                    -0.300538
     37 C                    -0.058655
     38 H                     0.121398
     39 H                     0.095133
     40 H                     0.095222
     41 H                     0.218793
     42 H                     0.117027
     43 H                     0.114894
     44 H                     0.187115
  ----------------------------------------
  Sum of atomic charges =     0.000000

                    Cartesian Multipole Moments
 -----------------------------------------------------------------
    Charge (ESU x 10^10)
                 0.0000
    Dipole Moment (Debye)
         X       0.0262      Y       2.9707      Z       3.5336
       Tot       4.6165
    Quadrupole Moments (Debye-Ang)
        XX    -193.8680     XY      -1.7665     YY    -175.4548
        XZ       8.5725     YZ      -9.2316     ZZ    -195.7407

 Total job time:  319.07s(wall), 10339.64s(cpu)
        *  Thank you very much for using Q-Chem.  Have a nice day.  *
