 Q-Chem 5.4, Q-Chem, Inc., Pleasanton, CA (2021)
 Q-Chem 5.4.0 for Intel X86 EM64T Linux

User input:
--------------------------------------------------------------
$molecule
0 1
C	-0.320589	-8.517702	0.014560
C	0.737240	-7.641575	-0.180211
S	-1.842356	-7.638634	0.299553
C	0.366488	-6.264785	-0.114873
H	1.768528	-7.966081	-0.368061
C	-1.038637	-6.072714	0.131236
C	-1.588197	-4.787049	0.253435
C	1.258831	-5.162801	-0.249014
C	0.709695	-3.874817	-0.122513
C	-0.697430	-3.683952	0.121043
O	2.553323	-5.499772	-0.505933
O	-2.888369	-4.459055	0.512697
C	-3.927625	-5.329063	0.080869
H	-4.869656	-4.755694	0.173159
H	-4.007459	-6.238095	0.716363
H	-3.789565	-5.637262	-0.978072
C	3.600064	-4.572261	-0.246949
H	4.544887	-5.139743	-0.344574
H	3.532074	-4.153131	0.779898
H	3.612378	-3.739531	-0.983261
C	-1.064246	-2.306654	0.188009
S	1.517360	-2.306501	-0.278644
C	0.000000	-1.435185	0.000000
H	-2.094685	-1.978138	0.373017
C	0.000000	0.000000	0.000000
S	0.234628	0.873813	1.507541
C	0.640889	2.392969	0.718873
C	0.234815	0.873434	-1.067872
C	0.592377	2.216811	-0.686410
S	0.174526	0.637422	-2.805516
C	0.622551	2.330840	-3.054530
C	0.803505	3.015647	-1.862551
F	1.144815	4.307994	-1.819088
C	0.740334	2.763108	-4.456084
O	0.548793	2.017428	-5.406510
O	1.082665	4.069544	-4.569225
C	1.215848	4.546407	-5.916207
H	1.494066	5.611729	-5.833064
H	0.261736	4.436296	-6.470168
H	2.000108	3.981294	-6.459293
H	0.878739	3.286099	1.306486
H	-0.159475	-9.143623	0.900177
H	-0.483604	-9.149441	-0.866566
H	0.194856	-1.443175	1.062246
$end

$rem
JOBTYPE		SP
EXCHANGE	HF
CORRELATION	pRIMP2
BASIS		cc-pvtz
METHOD		rimp2
AUX_BASIS	rimp2-cc-pvtz
SOLVENT_METHOD	PCM
PURECART	11111
SYMMETRY	false
MEM_TOTAL	110000
SCF_CONVERGENCE = 6
THRESH=10
GUI = 2
$end

$solvent
dielectric 4.90
$end
--------------------------------------------------------------

             Standard Nuclear Orientation (Angstroms)
    I     Atom           X                Y                Z
 ----------------------------------------------------------------
    1      C      -0.3205890000    -8.5177020000     0.0145600000
    2      C       0.7372400000    -7.6415750000    -0.1802110000
    3      S      -1.8423560000    -7.6386340000     0.2995530000
    4      C       0.3664880000    -6.2647850000    -0.1148730000
    5      H       1.7685280000    -7.9660810000    -0.3680610000
    6      C      -1.0386370000    -6.0727140000     0.1312360000
    7      C      -1.5881970000    -4.7870490000     0.2534350000
    8      C       1.2588310000    -5.1628010000    -0.2490140000
    9      C       0.7096950000    -3.8748170000    -0.1225130000
   10      C      -0.6974300000    -3.6839520000     0.1210430000
   11      O       2.5533230000    -5.4997720000    -0.5059330000
   12      O      -2.8883690000    -4.4590550000     0.5126970000
   13      C      -3.9276250000    -5.3290630000     0.0808690000
   14      H      -4.8696560000    -4.7556940000     0.1731590000
   15      H      -4.0074590000    -6.2380950000     0.7163630000
   16      H      -3.7895650000    -5.6372620000    -0.9780720000
   17      C       3.6000640000    -4.5722610000    -0.2469490000
   18      H       4.5448870000    -5.1397430000    -0.3445740000
   19      H       3.5320740000    -4.1531310000     0.7798980000
   20      H       3.6123780000    -3.7395310000    -0.9832610000
   21      C      -1.0642460000    -2.3066540000     0.1880090000
   22      S       1.5173600000    -2.3065010000    -0.2786440000
   23      C       0.0000000000    -1.4351850000     0.0000000000
   24      H      -2.0946850000    -1.9781380000     0.3730170000
   25      C       0.0000000000     0.0000000000     0.0000000000
   26      S       0.2346280000     0.8738130000     1.5075410000
   27      C       0.6408890000     2.3929690000     0.7188730000
   28      C       0.2348150000     0.8734340000    -1.0678720000
   29      C       0.5923770000     2.2168110000    -0.6864100000
   30      S       0.1745260000     0.6374220000    -2.8055160000
   31      C       0.6225510000     2.3308400000    -3.0545300000
   32      C       0.8035050000     3.0156470000    -1.8625510000
   33      F       1.1448150000     4.3079940000    -1.8190880000
   34      C       0.7403340000     2.7631080000    -4.4560840000
   35      O       0.5487930000     2.0174280000    -5.4065100000
   36      O       1.0826650000     4.0695440000    -4.5692250000
   37      C       1.2158480000     4.5464070000    -5.9162070000
   38      H       1.4940660000     5.6117290000    -5.8330640000
   39      H       0.2617360000     4.4362960000    -6.4701680000
   40      H       2.0001080000     3.9812940000    -6.4592930000
   41      H       0.8787390000     3.2860990000     1.3064860000
   42      H      -0.1594750000    -9.1436230000     0.9001770000
   43      H      -0.4836040000    -9.1494410000    -0.8665660000
   44      H       0.1948560000    -1.4431750000     1.0622460000
 ----------------------------------------------------------------

   11   -2755.3412622690      7.45e-07  Convergence criterion met
 Total energy in the final basis set =    -2755.3412622690
        RIMP2         total energy =     -2760.4288581634 a.u.

                    Orbital Energies (a.u.)
 --------------------------------------------------------------

 Alpha MOs
 -- Occupied --
-92.0173 -91.9986 -91.9769 -91.9574 -26.3436 -20.6150 -20.5869 -20.5861
-20.5615 -11.4095 -11.3828 -11.3129 -11.3086 -11.3060 -11.3002 -11.2980
-11.2979 -11.2889 -11.2853 -11.2840 -11.2825 -11.2823 -11.2786 -11.2717
-11.2716 -11.2575 -11.2558 -11.2489 -11.2351  -9.0160  -8.9987  -8.9790
 -8.9600  -6.6967  -6.6961  -6.6955  -6.6797  -6.6789  -6.6778  -6.6601
 -6.6592  -6.6579  -6.6412  -6.6403  -6.6393  -1.6607  -1.4674  -1.4097
 -1.4085  -1.3701  -1.2291  -1.2021  -1.1729  -1.1379  -1.0990  -1.0457
 -1.0439  -1.0250  -1.0032  -0.9961  -0.9632  -0.9583  -0.9478  -0.9405
 -0.8927  -0.8688  -0.8658  -0.8147  -0.7970  -0.7889  -0.7841  -0.7673
 -0.7567  -0.7376  -0.7256  -0.7169  -0.6967  -0.6864  -0.6846  -0.6793
 -0.6740  -0.6604  -0.6556  -0.6481  -0.6340  -0.6297  -0.6192  -0.6147
 -0.6109  -0.5993  -0.5914  -0.5763  -0.5716  -0.5633  -0.5590  -0.5553
 -0.5473  -0.5327  -0.5312  -0.5242  -0.5124  -0.5078  -0.5069  -0.5009
 -0.4854  -0.4817  -0.4761  -0.4739  -0.4697  -0.4683  -0.4606  -0.4460
 -0.4227  -0.3996  -0.3845  -0.3694  -0.3511  -0.3018  -0.2889  -0.2200

          Ground-State Mulliken Net Atomic Charges

     Atom                 Charge (a.u.)
  ----------------------------------------
      1 C                    -0.069956
      2 C                    -0.264331
      3 S                    -0.137588
      4 C                    -0.042446
      5 H                     0.192824
      6 C                    -0.053685
      7 C                     0.227054
      8 C                     0.221705
      9 C                    -0.073173
     10 C                    -0.048806
     11 O                    -0.335101
     12 O                    -0.343407
     13 C                    -0.082637
     14 H                     0.119811
     15 H                     0.091930
     16 H                     0.093157
     17 C                    -0.086618
     18 H                     0.122937
     19 H                     0.091573
     20 H                     0.090898
     21 C                    -0.264458
     22 S                    -0.070182
     23 C                     0.068038
     24 H                     0.203502
     25 C                    -0.072648
     26 S                     0.092429
     27 C                    -0.187302
     28 C                    -0.005908
     29 C                    -0.097194
     30 S                     0.014451
     31 C                    -0.156902
     32 C                     0.396542
     33 F                    -0.206799
     34 C                     0.445047
     35 O                    -0.460453
     36 O                    -0.300766
     37 C                    -0.058431
     38 H                     0.121314
     39 H                     0.095148
     40 H                     0.095193
     41 H                     0.219230
     42 H                     0.116555
     43 H                     0.114455
     44 H                     0.184996
  ----------------------------------------
  Sum of atomic charges =     0.000000

                    Cartesian Multipole Moments
 -----------------------------------------------------------------
    Charge (ESU x 10^10)
                 0.0000
    Dipole Moment (Debye)
         X       0.9664      Y       3.3259      Z       3.4483
       Tot       4.8874
    Quadrupole Moments (Debye-Ang)
        XX    -182.8945     XY       0.4008     YY    -178.4406
        XZ       0.9583     YZ      -6.4379     ZZ    -205.5485

 Total job time:  371.20s(wall), 11303.08s(cpu)
        *  Thank you very much for using Q-Chem.  Have a nice day.  *
