 Q-Chem 5.4, Q-Chem, Inc., Pleasanton, CA (2021)
 Q-Chem 5.4.0 for Intel X86 EM64T Linux

User input:
--------------------------------------------------------------
$molecule
0 1
C	-0.172904	-8.517702	-0.270358
C	0.524688	-7.641575	0.548363
S	-1.180599	-7.638634	-1.445750
C	0.282727	-6.264785	0.259951
H	1.203014	-7.966081	1.347559
C	-0.632972	-6.072714	-0.833868
C	-1.013580	-4.787049	-1.248701
C	0.845068	-5.162801	0.965673
C	0.460946	-3.874817	0.553357
C	-0.453541	-3.683952	-0.543470
O	1.714812	-5.499772	1.958276
O	-1.888193	-4.459055	-2.245053
C	-2.033848	-5.329063	-3.360989
H	-2.584788	-4.755694	-4.130667
H	-2.624118	-6.238095	-3.112380
H	-1.047748	-5.637262	-3.770895
C	2.013896	-4.572261	2.994272
H	2.570853	-5.139743	3.763700
H	1.090625	-4.153131	3.448815
H	2.657717	-3.739531	2.636780
C	-0.694943	-2.306654	-0.827659
S	0.999993	-2.306501	1.174750
C	-0.000000	-1.435185	-0.000000
H	-1.370385	-1.978138	-1.627541
C	0.000000	0.000000	0.000000
S	0.581934	0.692785	1.507541
C	1.592155	1.897915	0.718873
C	0.581944	0.692363	-1.067872
C	1.473741	1.758764	-0.686410
S	0.427560	0.503942	-2.805516
C	1.549278	1.849357	-3.054530
C	2.002690	2.393529	-1.862551
F	2.858191	3.420549	-1.819088
C	1.838710	2.191348	-4.456084
O	1.349977	1.596481	-5.406510
O	2.701091	3.230705	-4.569225
C	3.023327	3.606605	-5.916207
H	3.725703	4.454534	-5.833064
H	2.112072	3.910035	-6.470168
H	3.495281	2.762996	-6.459293
H	2.185174	2.606846	1.306486
H	-0.859314	-9.143623	0.311979
H	0.508666	-9.149441	-0.852097
H	-0.822504	-1.443175	0.699874
$end

$rem
JOBTYPE		SP
EXCHANGE	HF
CORRELATION	pRIMP2
BASIS		cc-pvtz
METHOD		rimp2
AUX_BASIS	rimp2-cc-pvtz
SOLVENT_METHOD	PCM
PURECART	11111
SYMMETRY	false
MEM_TOTAL	110000
SCF_CONVERGENCE = 6
THRESH=10
GUI = 2
$end

$solvent
dielectric 4.90
$end
--------------------------------------------------------------

             Standard Nuclear Orientation (Angstroms)
    I     Atom           X                Y                Z
 ----------------------------------------------------------------
    1      C      -0.1729040000    -8.5177020000    -0.2703580000
    2      C       0.5246880000    -7.6415750000     0.5483630000
    3      S      -1.1805990000    -7.6386340000    -1.4457500000
    4      C       0.2827270000    -6.2647850000     0.2599510000
    5      H       1.2030140000    -7.9660810000     1.3475590000
    6      C      -0.6329720000    -6.0727140000    -0.8338680000
    7      C      -1.0135800000    -4.7870490000    -1.2487010000
    8      C       0.8450680000    -5.1628010000     0.9656730000
    9      C       0.4609460000    -3.8748170000     0.5533570000
   10      C      -0.4535410000    -3.6839520000    -0.5434700000
   11      O       1.7148120000    -5.4997720000     1.9582760000
   12      O      -1.8881930000    -4.4590550000    -2.2450530000
   13      C      -2.0338480000    -5.3290630000    -3.3609890000
   14      H      -2.5847880000    -4.7556940000    -4.1306670000
   15      H      -2.6241180000    -6.2380950000    -3.1123800000
   16      H      -1.0477480000    -5.6372620000    -3.7708950000
   17      C       2.0138960000    -4.5722610000     2.9942720000
   18      H       2.5708530000    -5.1397430000     3.7637000000
   19      H       1.0906250000    -4.1531310000     3.4488150000
   20      H       2.6577170000    -3.7395310000     2.6367800000
   21      C      -0.6949430000    -2.3066540000    -0.8276590000
   22      S       0.9999930000    -2.3065010000     1.1747500000
   23      C       0.0000000000    -1.4351850000     0.0000000000
   24      H      -1.3703850000    -1.9781380000    -1.6275410000
   25      C       0.0000000000     0.0000000000     0.0000000000
   26      S       0.5819340000     0.6927850000     1.5075410000
   27      C       1.5921550000     1.8979150000     0.7188730000
   28      C       0.5819440000     0.6923630000    -1.0678720000
   29      C       1.4737410000     1.7587640000    -0.6864100000
   30      S       0.4275600000     0.5039420000    -2.8055160000
   31      C       1.5492780000     1.8493570000    -3.0545300000
   32      C       2.0026900000     2.3935290000    -1.8625510000
   33      F       2.8581910000     3.4205490000    -1.8190880000
   34      C       1.8387100000     2.1913480000    -4.4560840000
   35      O       1.3499770000     1.5964810000    -5.4065100000
   36      O       2.7010910000     3.2307050000    -4.5692250000
   37      C       3.0233270000     3.6066050000    -5.9162070000
   38      H       3.7257030000     4.4545340000    -5.8330640000
   39      H       2.1120720000     3.9100350000    -6.4701680000
   40      H       3.4952810000     2.7629960000    -6.4592930000
   41      H       2.1851740000     2.6068460000     1.3064860000
   42      H      -0.8593140000    -9.1436230000     0.3119790000
   43      H       0.5086660000    -9.1494410000    -0.8520970000
   44      H      -0.8225040000    -1.4431750000     0.6998740000
 ----------------------------------------------------------------

   11   -2755.3100908674      8.35e-07  Convergence criterion met
 Total energy in the final basis set =    -2755.3100908674
        RIMP2         total energy =     -2760.4070226404 a.u.

                    Orbital Energies (a.u.)
 --------------------------------------------------------------

 Alpha MOs
 -- Occupied --
-92.0156 -92.0033 -91.9767 -91.9560 -26.3449 -20.6156 -20.5861 -20.5851
-20.5622 -11.4105 -11.3848 -11.3209 -11.3079 -11.3060 -11.3037 -11.2990
-11.2894 -11.2880 -11.2868 -11.2839 -11.2817 -11.2810 -11.2754 -11.2731
-11.2698 -11.2562 -11.2538 -11.2473 -11.2315  -9.0148  -9.0033  -8.9790
 -8.9586  -6.6955  -6.6949  -6.6944  -6.6842  -6.6835  -6.6824  -6.6600
 -6.6591  -6.6578  -6.6398  -6.6389  -6.6379  -1.6620  -1.4681  -1.4088
 -1.4076  -1.3709  -1.2331  -1.2015  -1.1716  -1.1395  -1.0980  -1.0465
 -1.0444  -1.0263  -1.0027  -0.9953  -0.9644  -0.9593  -0.9470  -0.9400
 -0.8926  -0.8704  -0.8633  -0.8141  -0.7992  -0.7891  -0.7825  -0.7655
 -0.7575  -0.7371  -0.7267  -0.7163  -0.6969  -0.6879  -0.6853  -0.6795
 -0.6747  -0.6609  -0.6552  -0.6475  -0.6358  -0.6302  -0.6178  -0.6136
 -0.6115  -0.6009  -0.5912  -0.5768  -0.5699  -0.5639  -0.5566  -0.5548
 -0.5414  -0.5337  -0.5305  -0.5274  -0.5134  -0.5087  -0.5067  -0.4997
 -0.4853  -0.4828  -0.4757  -0.4747  -0.4716  -0.4685  -0.4559  -0.4442
 -0.4274  -0.3936  -0.3843  -0.3678  -0.3510  -0.3042  -0.2870  -0.2148

          Ground-State Mulliken Net Atomic Charges

     Atom                 Charge (a.u.)
  ----------------------------------------
      1 C                    -0.069250
      2 C                    -0.275899
      3 S                    -0.140003
      4 C                    -0.040543
      5 H                     0.191323
      6 C                    -0.054267
      7 C                     0.222188
      8 C                     0.216478
      9 C                    -0.077539
     10 C                    -0.054433
     11 O                    -0.335518
     12 O                    -0.343963
     13 C                    -0.082642
     14 H                     0.120046
     15 H                     0.091961
     16 H                     0.092894
     17 C                    -0.087390
     18 H                     0.123191
     19 H                     0.091063
     20 H                     0.089302
     21 C                    -0.266496
     22 S                    -0.080700
     23 C                     0.045572
     24 H                     0.209954
     25 C                    -0.121366
     26 S                     0.082517
     27 C                    -0.151970
     28 C                     0.069944
     29 C                    -0.114928
     30 S                     0.024351
     31 C                    -0.155422
     32 C                     0.399995
     33 F                    -0.205583
     34 C                     0.446288
     35 O                    -0.460989
     36 O                    -0.301036
     37 C                    -0.058373
     38 H                     0.121568
     39 H                     0.095223
     40 H                     0.095394
     41 H                     0.220250
     42 H                     0.115157
     43 H                     0.112850
     44 H                     0.200799
  ----------------------------------------
  Sum of atomic charges =     0.000000

                    Cartesian Multipole Moments
 -----------------------------------------------------------------
    Charge (ESU x 10^10)
                 0.0000
    Dipole Moment (Debye)
         X       1.8126      Y       3.7916      Z       3.2066
       Tot       5.2862
    Quadrupole Moments (Debye-Ang)
        XX    -192.5592     XY       6.3245     YY    -189.1073
        XZ       1.3822     YZ      -8.2974     ZZ    -189.2093

 Total job time:  348.52s(wall), 10564.91s(cpu)
        *  Thank you very much for using Q-Chem.  Have a nice day.  *
