 Q-Chem 5.4, Q-Chem, Inc., Pleasanton, CA (2021)
 Q-Chem 5.4.0 for Intel X86 EM64T Linux

User input:
--------------------------------------------------------------
$molecule
0 1
C	-0.254945	-8.517702	-0.194917
C	0.680596	-7.641575	0.335839
S	-1.603876	-7.638634	-0.954772
C	0.354585	-6.264785	0.147576
H	1.591356	-7.966081	0.854836
C	-0.879999	-6.072714	-0.567090
C	-1.379534	-4.787049	-0.826731
C	1.124384	-5.162801	0.618405
C	0.622407	-3.874817	0.362333
C	-0.612067	-3.683952	-0.355575
O	2.281166	-5.499772	1.253677
O	-2.542174	-4.459055	-1.463859
C	-3.060718	-5.329063	-2.462679
H	-3.841678	-4.755694	-2.997507
H	-3.530361	-6.238095	-2.027179
H	-2.274283	-5.637262	-3.185132
C	2.916545	-4.572261	2.124902
H	3.703073	-5.139743	2.657438
H	2.204417	-4.153131	2.867810
H	3.399269	-3.739531	1.568770
C	-0.936109	-2.306654	-0.540061
S	1.341474	-2.306501	0.761887
C	0.000000	-1.435185	0.000000
H	-1.844392	-1.978138	-1.060690
C	0.000000	0.000000	0.000000
S	0.452792	0.783312	1.507541
C	1.238397	2.145556	0.718873
C	0.452875	0.782898	-1.067872
C	1.145945	1.987956	-0.686410
S	0.333556	0.570531	-2.805516
C	1.204604	2.090290	-3.054530
C	1.556633	2.704929	-1.862551
F	2.220797	3.864903	-1.819088
C	1.430252	2.477345	-4.456084
O	1.052242	1.806648	-5.406510
O	2.099050	3.650663	-4.569225
C	2.351116	4.076808	-5.916207
H	2.895579	5.033821	-5.833064
H	1.401015	4.217390	-6.470168
H	2.962391	3.327969	-6.459293
H	1.699302	2.946693	1.306486
H	-0.700788	-9.143623	0.587067
H	0.186556	-9.149441	-0.974683
H	-0.533530	-1.443175	0.938979
$end

$rem
JOBTYPE		SP
EXCHANGE	HF
CORRELATION	pRIMP2
BASIS		cc-pvtz
METHOD		rimp2
AUX_BASIS	rimp2-cc-pvtz
SOLVENT_METHOD	PCM
PURECART	11111
SYMMETRY	false
MEM_TOTAL	110000
SCF_CONVERGENCE = 6
THRESH=10
GUI = 2
$end

$solvent
dielectric 4.90
$end
--------------------------------------------------------------

             Standard Nuclear Orientation (Angstroms)
    I     Atom           X                Y                Z
 ----------------------------------------------------------------
    1      C      -0.2549450000    -8.5177020000    -0.1949170000
    2      C       0.6805960000    -7.6415750000     0.3358390000
    3      S      -1.6038760000    -7.6386340000    -0.9547720000
    4      C       0.3545850000    -6.2647850000     0.1475760000
    5      H       1.5913560000    -7.9660810000     0.8548360000
    6      C      -0.8799990000    -6.0727140000    -0.5670900000
    7      C      -1.3795340000    -4.7870490000    -0.8267310000
    8      C       1.1243840000    -5.1628010000     0.6184050000
    9      C       0.6224070000    -3.8748170000     0.3623330000
   10      C      -0.6120670000    -3.6839520000    -0.3555750000
   11      O       2.2811660000    -5.4997720000     1.2536770000
   12      O      -2.5421740000    -4.4590550000    -1.4638590000
   13      C      -3.0607180000    -5.3290630000    -2.4626790000
   14      H      -3.8416780000    -4.7556940000    -2.9975070000
   15      H      -3.5303610000    -6.2380950000    -2.0271790000
   16      H      -2.2742830000    -5.6372620000    -3.1851320000
   17      C       2.9165450000    -4.5722610000     2.1249020000
   18      H       3.7030730000    -5.1397430000     2.6574380000
   19      H       2.2044170000    -4.1531310000     2.8678100000
   20      H       3.3992690000    -3.7395310000     1.5687700000
   21      C      -0.9361090000    -2.3066540000    -0.5400610000
   22      S       1.3414740000    -2.3065010000     0.7618870000
   23      C       0.0000000000    -1.4351850000     0.0000000000
   24      H      -1.8443920000    -1.9781380000    -1.0606900000
   25      C       0.0000000000     0.0000000000     0.0000000000
   26      S       0.4527920000     0.7833120000     1.5075410000
   27      C       1.2383970000     2.1455560000     0.7188730000
   28      C       0.4528750000     0.7828980000    -1.0678720000
   29      C       1.1459450000     1.9879560000    -0.6864100000
   30      S       0.3335560000     0.5705310000    -2.8055160000
   31      C       1.2046040000     2.0902900000    -3.0545300000
   32      C       1.5566330000     2.7049290000    -1.8625510000
   33      F       2.2207970000     3.8649030000    -1.8190880000
   34      C       1.4302520000     2.4773450000    -4.4560840000
   35      O       1.0522420000     1.8066480000    -5.4065100000
   36      O       2.0990500000     3.6506630000    -4.5692250000
   37      C       2.3511160000     4.0768080000    -5.9162070000
   38      H       2.8955790000     5.0338210000    -5.8330640000
   39      H       1.4010150000     4.2173900000    -6.4701680000
   40      H       2.9623910000     3.3279690000    -6.4592930000
   41      H       1.6993020000     2.9466930000     1.3064860000
   42      H      -0.7007880000    -9.1436230000     0.5870670000
   43      H       0.1865560000    -9.1494410000    -0.9746830000
   44      H      -0.5335300000    -1.4431750000     0.9389790000
 ----------------------------------------------------------------

   11   -2755.3284307577      7.73e-07  Convergence criterion met
 Total energy in the final basis set =    -2755.3284307577
        RIMP2         total energy =     -2760.4199902139 a.u.

                    Orbital Energies (a.u.)
 --------------------------------------------------------------

 Alpha MOs
 -- Occupied --
-92.0166 -92.0011 -91.9759 -91.9568 -26.3443 -20.6153 -20.5864 -20.5857
-20.5618 -11.4100 -11.3838 -11.3176 -11.3082 -11.3049 -11.3030 -11.2984
-11.2920 -11.2891 -11.2859 -11.2840 -11.2820 -11.2819 -11.2769 -11.2718
-11.2709 -11.2569 -11.2549 -11.2482 -11.2337  -9.0155  -9.0010  -8.9782
 -8.9594  -6.6963  -6.6956  -6.6951  -6.6820  -6.6813  -6.6802  -6.6593
 -6.6584  -6.6571  -6.6406  -6.6397  -6.6387  -1.6613  -1.4677  -1.4093
 -1.4080  -1.3705  -1.2307  -1.2018  -1.1723  -1.1386  -1.0985  -1.0457
 -1.0444  -1.0254  -1.0029  -0.9956  -0.9635  -0.9590  -0.9475  -0.9401
 -0.8926  -0.8695  -0.8647  -0.8140  -0.7987  -0.7884  -0.7836  -0.7664
 -0.7571  -0.7373  -0.7262  -0.7169  -0.6969  -0.6867  -0.6849  -0.6792
 -0.6743  -0.6604  -0.6554  -0.6478  -0.6339  -0.6301  -0.6186  -0.6142
 -0.6116  -0.6000  -0.5913  -0.5750  -0.5714  -0.5636  -0.5574  -0.5531
 -0.5442  -0.5333  -0.5311  -0.5265  -0.5126  -0.5080  -0.5067  -0.5003
 -0.4846  -0.4825  -0.4753  -0.4748  -0.4726  -0.4687  -0.4589  -0.4450
 -0.4244  -0.3971  -0.3847  -0.3686  -0.3505  -0.3032  -0.2878  -0.2181

          Ground-State Mulliken Net Atomic Charges

     Atom                 Charge (a.u.)
  ----------------------------------------
      1 C                    -0.069697
      2 C                    -0.269138
      3 S                    -0.138233
      4 C                    -0.041489
      5 H                     0.192153
      6 C                    -0.052875
      7 C                     0.221346
      8 C                     0.220148
      9 C                    -0.075985
     10 C                    -0.049676
     11 O                    -0.335364
     12 O                    -0.343620
     13 C                    -0.082533
     14 H                     0.119942
     15 H                     0.091740
     16 H                     0.093118
     17 C                    -0.086831
     18 H                     0.122981
     19 H                     0.091231
     20 H                     0.089981
     21 C                    -0.255446
     22 S                    -0.072409
     23 C                     0.025694
     24 H                     0.208762
     25 C                    -0.096938
     26 S                     0.088946
     27 C                    -0.166904
     28 C                     0.047403
     29 C                    -0.106905
     30 S                     0.018704
     31 C                    -0.155937
     32 C                     0.398496
     33 F                    -0.206221
     34 C                     0.445050
     35 O                    -0.460785
     36 O                    -0.300969
     37 C                    -0.058388
     38 H                     0.121468
     39 H                     0.095133
     40 H                     0.095328
     41 H                     0.219461
     42 H                     0.115990
     43 H                     0.113824
     44 H                     0.189444
  ----------------------------------------
  Sum of atomic charges =     0.000000

                    Cartesian Multipole Moments
 -----------------------------------------------------------------
    Charge (ESU x 10^10)
                -0.0000
    Dipole Moment (Debye)
         X       1.3935      Y       3.5501      Z       3.3787
       Tot       5.0952
    Quadrupole Moments (Debye-Ang)
        XX    -189.9343     XY       4.2617     YY    -183.2035
        XZ       5.4536     YZ      -8.1069     ZZ    -195.1456

 Total job time:  354.64s(wall), 10769.55s(cpu)
        *  Thank you very much for using Q-Chem.  Have a nice day.  *
