 Q-Chem 5.4, Q-Chem, Inc., Pleasanton, CA (2021)
 Q-Chem 5.4.0 for Intel X86 EM64T Linux

User input:
--------------------------------------------------------------
$molecule
0 1
C	-0.095966	-8.517702	0.306235
C	0.082807	-7.641575	-0.754415
S	-0.348635	-7.638634	1.833702
C	0.017401	-6.264785	-0.383675
H	0.259008	-7.966081	-1.787757
C	-0.231913	-6.072714	1.020885
C	-0.305044	-4.787049	1.579097
C	0.196549	-5.162801	-1.268082
C	0.127606	-3.874817	-0.708796
C	-0.124792	-3.683952	0.696769
O	0.397867	-5.499772	-2.572378
O	-0.506103	-4.459055	2.889532
C	-1.267335	-5.329063	3.718420
H	-1.502804	-4.755694	4.635204
H	-0.697471	-6.238095	4.010790
H	-2.215194	-5.637262	3.226506
C	0.999238	-4.572261	-3.467415
H	1.230649	-5.139743	-4.388648
H	1.940905	-4.153131	-3.052323
H	0.311543	-3.739531	-3.730819
C	-0.187323	-2.306654	1.064366
S	0.257128	-2.306501	-1.521154
C	-0.000000	-1.435185	-0.000000
H	-0.365903	-1.978138	2.095939
C	0.000000	0.000000	0.000000
S	0.234628	0.873813	1.507541
C	0.640889	2.392969	0.718873
C	0.234815	0.873434	-1.067872
C	0.592377	2.216811	-0.686410
S	0.174526	0.637422	-2.805516
C	0.622551	2.330840	-3.054530
C	0.803505	3.015647	-1.862551
F	1.144815	4.307994	-1.819088
C	0.740334	2.763108	-4.456084
O	0.548793	2.017428	-5.406510
O	1.082665	4.069544	-4.569225
C	1.215848	4.546407	-5.916207
H	1.494066	5.611729	-5.833064
H	0.261736	4.436296	-6.470168
H	2.000108	3.981294	-6.459293
H	0.878739	3.286099	1.306486
H	0.791346	-9.143623	0.457736
H	-0.979708	-9.149441	0.158056
H	1.064830	-1.443175	0.180205
$end

$rem
JOBTYPE		SP
EXCHANGE	HF
CORRELATION	pRIMP2
BASIS		cc-pvtz
METHOD		rimp2
AUX_BASIS	rimp2-cc-pvtz
SOLVENT_METHOD	PCM
PURECART	11111
SYMMETRY	false
MEM_TOTAL	110000
SCF_CONVERGENCE = 6
THRESH=10
GUI = 2
$end

$solvent
dielectric 4.90
$end
--------------------------------------------------------------

             Standard Nuclear Orientation (Angstroms)
    I     Atom           X                Y                Z
 ----------------------------------------------------------------
    1      C      -0.0959660000    -8.5177020000     0.3062350000
    2      C       0.0828070000    -7.6415750000    -0.7544150000
    3      S      -0.3486350000    -7.6386340000     1.8337020000
    4      C       0.0174010000    -6.2647850000    -0.3836750000
    5      H       0.2590080000    -7.9660810000    -1.7877570000
    6      C      -0.2319130000    -6.0727140000     1.0208850000
    7      C      -0.3050440000    -4.7870490000     1.5790970000
    8      C       0.1965490000    -5.1628010000    -1.2680820000
    9      C       0.1276060000    -3.8748170000    -0.7087960000
   10      C      -0.1247920000    -3.6839520000     0.6967690000
   11      O       0.3978670000    -5.4997720000    -2.5723780000
   12      O      -0.5061030000    -4.4590550000     2.8895320000
   13      C      -1.2673350000    -5.3290630000     3.7184200000
   14      H      -1.5028040000    -4.7556940000     4.6352040000
   15      H      -0.6974710000    -6.2380950000     4.0107900000
   16      H      -2.2151940000    -5.6372620000     3.2265060000
   17      C       0.9992380000    -4.5722610000    -3.4674150000
   18      H       1.2306490000    -5.1397430000    -4.3886480000
   19      H       1.9409050000    -4.1531310000    -3.0523230000
   20      H       0.3115430000    -3.7395310000    -3.7308190000
   21      C      -0.1873230000    -2.3066540000     1.0643660000
   22      S       0.2571280000    -2.3065010000    -1.5211540000
   23      C       0.0000000000    -1.4351850000     0.0000000000
   24      H      -0.3659030000    -1.9781380000     2.0959390000
   25      C       0.0000000000     0.0000000000     0.0000000000
   26      S       0.2346280000     0.8738130000     1.5075410000
   27      C       0.6408890000     2.3929690000     0.7188730000
   28      C       0.2348150000     0.8734340000    -1.0678720000
   29      C       0.5923770000     2.2168110000    -0.6864100000
   30      S       0.1745260000     0.6374220000    -2.8055160000
   31      C       0.6225510000     2.3308400000    -3.0545300000
   32      C       0.8035050000     3.0156470000    -1.8625510000
   33      F       1.1448150000     4.3079940000    -1.8190880000
   34      C       0.7403340000     2.7631080000    -4.4560840000
   35      O       0.5487930000     2.0174280000    -5.4065100000
   36      O       1.0826650000     4.0695440000    -4.5692250000
   37      C       1.2158480000     4.5464070000    -5.9162070000
   38      H       1.4940660000     5.6117290000    -5.8330640000
   39      H       0.2617360000     4.4362960000    -6.4701680000
   40      H       2.0001080000     3.9812940000    -6.4592930000
   41      H       0.8787390000     3.2860990000     1.3064860000
   42      H       0.7913460000    -9.1436230000     0.4577360000
   43      H      -0.9797080000    -9.1494410000     0.1580560000
   44      H       1.0648300000    -1.4431750000     0.1802050000
 ----------------------------------------------------------------

   11   -2755.3401635461      8.50e-07  Convergence criterion met
 Total energy in the final basis set =    -2755.3401635461
        RIMP2         total energy =     -2760.4316432694 a.u.

                    Orbital Energies (a.u.)
 --------------------------------------------------------------

 Alpha MOs
 -- Occupied --
-92.0130 -91.9936 -91.9804 -91.9603 -26.3418 -20.6146 -20.5888 -20.5883
-20.5611 -11.4090 -11.3801 -11.3114 -11.3112 -11.3102 -11.3002 -11.2971
-11.2909 -11.2887 -11.2849 -11.2849 -11.2848 -11.2842 -11.2837 -11.2758
-11.2723 -11.2621 -11.2600 -11.2518 -11.2415  -9.0119  -8.9940  -8.9828
 -8.9628  -6.6927  -6.6922  -6.6916  -6.6750  -6.6743  -6.6731  -6.6639
 -6.6631  -6.6617  -6.6440  -6.6431  -6.6421  -1.6589  -1.4670  -1.4121
 -1.4102  -1.3697  -1.2307  -1.2026  -1.1759  -1.1373  -1.1013  -1.0490
 -1.0439  -1.0240  -1.0049  -0.9982  -0.9637  -0.9569  -0.9499  -0.9420
 -0.8952  -0.8691  -0.8652  -0.8152  -0.7926  -0.7903  -0.7848  -0.7703
 -0.7563  -0.7379  -0.7239  -0.7119  -0.6971  -0.6925  -0.6844  -0.6816
 -0.6736  -0.6643  -0.6568  -0.6497  -0.6385  -0.6315  -0.6220  -0.6162
 -0.6112  -0.5996  -0.5935  -0.5768  -0.5713  -0.5665  -0.5604  -0.5569
 -0.5495  -0.5333  -0.5312  -0.5269  -0.5161  -0.5122  -0.5085  -0.5014
 -0.4848  -0.4780  -0.4773  -0.4736  -0.4701  -0.4662  -0.4596  -0.4484
 -0.4324  -0.3974  -0.3839  -0.3726  -0.3509  -0.2998  -0.2866  -0.2187

          Ground-State Mulliken Net Atomic Charges

     Atom                 Charge (a.u.)
  ----------------------------------------
      1 C                    -0.070839
      2 C                    -0.246625
      3 S                    -0.131527
      4 C                    -0.052311
      5 H                     0.195342
      6 C                    -0.048578
      7 C                     0.218255
      8 C                     0.234198
      9 C                    -0.070118
     10 C                    -0.017708
     11 O                    -0.333775
     12 O                    -0.343959
     13 C                    -0.082750
     14 H                     0.120185
     15 H                     0.092193
     16 H                     0.093242
     17 C                    -0.090036
     18 H                     0.125224
     19 H                     0.093412
     20 H                     0.092308
     21 C                    -0.341512
     22 S                    -0.114492
     23 C                     0.163561
     24 H                     0.197018
     25 C                     0.020703
     26 S                     0.075655
     27 C                    -0.224246
     28 C                    -0.078262
     29 C                    -0.103242
     30 S                    -0.007235
     31 C                    -0.164307
     32 C                     0.410282
     33 F                    -0.208331
     34 C                     0.441670
     35 O                    -0.460341
     36 O                    -0.300569
     37 C                    -0.058715
     38 H                     0.121389
     39 H                     0.095165
     40 H                     0.094975
     41 H                     0.216490
     42 H                     0.119210
     43 H                     0.116946
     44 H                     0.212057
  ----------------------------------------
  Sum of atomic charges =     0.000000

                    Cartesian Multipole Moments
 -----------------------------------------------------------------
    Charge (ESU x 10^10)
                 0.0000
    Dipole Moment (Debye)
         X       1.2912      Y       1.0764      Z       2.8283
       Tot       3.2901
    Quadrupole Moments (Debye-Ang)
        XX    -196.5420     XY       2.9579     YY    -168.9243
        XZ      -9.9466     YZ      -2.9507     ZZ    -192.1507

 Total job time:  365.66s(wall), 11533.40s(cpu)
        *  Thank you very much for using Q-Chem.  Have a nice day.  *
