 Q-Chem 5.4, Q-Chem, Inc., Pleasanton, CA (2021)
 Q-Chem 5.4.0 for Intel X86 EM64T Linux

User input:
--------------------------------------------------------------
$molecule
0 1
C	0.217225	-8.517702	0.236226
C	-0.611939	-7.641575	-0.448921
S	1.413715	-7.638634	1.218777
C	-0.323572	-6.264785	-0.206907
H	-1.418739	-7.966081	-1.118185
C	0.768156	-6.072714	0.711285
C	1.215016	-4.787049	1.053725
C	-0.999917	-5.162801	-0.804258
C	-0.550033	-3.874817	-0.464908
C	0.541024	-3.683952	0.456457
O	-2.028811	-5.499772	-1.630752
O	2.249357	-4.459055	1.883064
C	2.586579	-5.329063	2.956754
H	3.262802	-4.755694	3.619069
H	3.124711	-6.238095	2.609423
H	1.686639	-5.637262	3.531667
C	-2.503251	-4.572261	-2.599073
H	-3.185356	-5.139743	-3.260097
H	-1.672937	-4.153131	-3.207034
H	-3.075213	-3.739531	-2.135214
C	0.828107	-2.306654	0.694410
S	-1.188794	-2.306501	-0.983256
C	0.000000	-1.435185	0.000000
H	1.632185	-1.978138	1.364851
C	0.000000	0.000000	0.000000
S	0.234628	0.873813	1.507541
C	0.640889	2.392969	0.718873
C	0.234815	0.873434	-1.067872
C	0.592377	2.216811	-0.686410
S	0.174526	0.637422	-2.805516
C	0.622551	2.330840	-3.054530
C	0.803505	3.015647	-1.862551
F	1.144815	4.307994	-1.819088
C	0.740334	2.763108	-4.456084
O	0.548793	2.017428	-5.406510
O	1.082665	4.069544	-4.569225
C	1.215848	4.546407	-5.916207
H	1.494066	5.611729	-5.833064
H	0.261736	4.436296	-6.470168
H	2.000108	3.981294	-6.459293
H	0.878739	3.286099	1.306486
H	0.792084	-9.143623	-0.456457
H	-0.352973	-9.149441	0.927480
H	0.688477	-1.443175	-0.832067
$end

$rem
JOBTYPE		SP
EXCHANGE	HF
CORRELATION	pRIMP2
BASIS		cc-pvtz
METHOD		rimp2
AUX_BASIS	rimp2-cc-pvtz
SOLVENT_METHOD	PCM
PURECART	11111
SYMMETRY	false
MEM_TOTAL	110000
SCF_CONVERGENCE = 6
THRESH=10
GUI = 2
$end

$solvent
dielectric 4.90
$end
--------------------------------------------------------------

             Standard Nuclear Orientation (Angstroms)
    I     Atom           X                Y                Z
 ----------------------------------------------------------------
    1      C       0.2172250000    -8.5177020000     0.2362260000
    2      C      -0.6119390000    -7.6415750000    -0.4489210000
    3      S       1.4137150000    -7.6386340000     1.2187770000
    4      C      -0.3235720000    -6.2647850000    -0.2069070000
    5      H      -1.4187390000    -7.9660810000    -1.1181850000
    6      C       0.7681560000    -6.0727140000     0.7112850000
    7      C       1.2150160000    -4.7870490000     1.0537250000
    8      C      -0.9999170000    -5.1628010000    -0.8042580000
    9      C      -0.5500330000    -3.8748170000    -0.4649080000
   10      C       0.5410240000    -3.6839520000     0.4564570000
   11      O      -2.0288110000    -5.4997720000    -1.6307520000
   12      O       2.2493570000    -4.4590550000     1.8830640000
   13      C       2.5865790000    -5.3290630000     2.9567540000
   14      H       3.2628020000    -4.7556940000     3.6190690000
   15      H       3.1247110000    -6.2380950000     2.6094230000
   16      H       1.6866390000    -5.6372620000     3.5316670000
   17      C      -2.5032510000    -4.5722610000    -2.5990730000
   18      H      -3.1853560000    -5.1397430000    -3.2600970000
   19      H      -1.6729370000    -4.1531310000    -3.2070340000
   20      H      -3.0752130000    -3.7395310000    -2.1352140000
   21      C       0.8281070000    -2.3066540000     0.6944100000
   22      S      -1.1887940000    -2.3065010000    -0.9832560000
   23      C       0.0000000000    -1.4351850000     0.0000000000
   24      H       1.6321850000    -1.9781380000     1.3648510000
   25      C       0.0000000000     0.0000000000     0.0000000000
   26      S       0.2346280000     0.8738130000     1.5075410000
   27      C       0.6408890000     2.3929690000     0.7188730000
   28      C       0.2348150000     0.8734340000    -1.0678720000
   29      C       0.5923770000     2.2168110000    -0.6864100000
   30      S       0.1745260000     0.6374220000    -2.8055160000
   31      C       0.6225510000     2.3308400000    -3.0545300000
   32      C       0.8035050000     3.0156470000    -1.8625510000
   33      F       1.1448150000     4.3079940000    -1.8190880000
   34      C       0.7403340000     2.7631080000    -4.4560840000
   35      O       0.5487930000     2.0174280000    -5.4065100000
   36      O       1.0826650000     4.0695440000    -4.5692250000
   37      C       1.2158480000     4.5464070000    -5.9162070000
   38      H       1.4940660000     5.6117290000    -5.8330640000
   39      H       0.2617360000     4.4362960000    -6.4701680000
   40      H       2.0001080000     3.9812940000    -6.4592930000
   41      H       0.8787390000     3.2860990000     1.3064860000
   42      H       0.7920840000    -9.1436230000    -0.4564570000
   43      H      -0.3529730000    -9.1494410000     0.9274800000
   44      H       0.6884770000    -1.4431750000    -0.8320670000
 ----------------------------------------------------------------

   11   -2755.3427502098      7.45e-07  Convergence criterion met
 Total energy in the final basis set =    -2755.3427502098
        RIMP2         total energy =     -2760.4333296276 a.u.

                    Orbital Energies (a.u.)
 --------------------------------------------------------------

 Alpha MOs
 -- Occupied --
-92.0143 -91.9995 -91.9772 -91.9587 -26.3439 -20.6152 -20.5876 -20.5869
-20.5617 -11.4099 -11.3833 -11.3094 -11.3077 -11.3073 -11.3049 -11.2988
-11.2983 -11.2891 -11.2854 -11.2840 -11.2833 -11.2832 -11.2811 -11.2737
-11.2729 -11.2589 -11.2585 -11.2501 -11.2376  -9.0129  -8.9996  -8.9795
 -8.9613  -6.6936  -6.6931  -6.6926  -6.6806  -6.6799  -6.6787  -6.6607
 -6.6598  -6.6585  -6.6425  -6.6416  -6.6406  -1.6610  -1.4677  -1.4105
 -1.4092  -1.3704  -1.2304  -1.2025  -1.1740  -1.1373  -1.1009  -1.0472
 -1.0452  -1.0238  -1.0037  -0.9974  -0.9637  -0.9575  -0.9488  -0.9417
 -0.8935  -0.8708  -0.8645  -0.8155  -0.7932  -0.7899  -0.7850  -0.7686
 -0.7583  -0.7357  -0.7258  -0.7094  -0.7003  -0.6948  -0.6851  -0.6805
 -0.6742  -0.6652  -0.6556  -0.6487  -0.6352  -0.6312  -0.6204  -0.6153
 -0.6109  -0.5994  -0.5933  -0.5764  -0.5709  -0.5646  -0.5585  -0.5560
 -0.5515  -0.5317  -0.5294  -0.5252  -0.5135  -0.5095  -0.5076  -0.5012
 -0.4860  -0.4803  -0.4771  -0.4741  -0.4726  -0.4667  -0.4605  -0.4462
 -0.4287  -0.3968  -0.3852  -0.3703  -0.3501  -0.3005  -0.2892  -0.2195

          Ground-State Mulliken Net Atomic Charges

     Atom                 Charge (a.u.)
  ----------------------------------------
      1 C                    -0.070291
      2 C                    -0.257574
      3 S                    -0.134584
      4 C                    -0.045577
      5 H                     0.193866
      6 C                    -0.051579
      7 C                     0.221036
      8 C                     0.231914
      9 C                    -0.080303
     10 C                    -0.053252
     11 O                    -0.335221
     12 O                    -0.343748
     13 C                    -0.082591
     14 H                     0.119947
     15 H                     0.092094
     16 H                     0.092815
     17 C                    -0.087502
     18 H                     0.123209
     19 H                     0.093464
     20 H                     0.090251
     21 C                    -0.257778
     22 S                    -0.071754
     23 C                     0.044309
     24 H                     0.208853
     25 C                    -0.038967
     26 S                     0.086381
     27 C                    -0.192308
     28 C                    -0.011674
     29 C                    -0.104419
     30 S                     0.004153
     31 C                    -0.154556
     32 C                     0.396035
     33 F                    -0.206077
     34 C                     0.445162
     35 O                    -0.460669
     36 O                    -0.300775
     37 C                    -0.058488
     38 H                     0.121476
     39 H                     0.095187
     40 H                     0.095117
     41 H                     0.216899
     42 H                     0.117757
     43 H                     0.115329
     44 H                     0.194432
  ----------------------------------------
  Sum of atomic charges =     0.000000

                    Cartesian Multipole Moments
 -----------------------------------------------------------------
    Charge (ESU x 10^10)
                -0.0000
    Dipole Moment (Debye)
         X       0.9433      Y       2.4587      Z       2.4391
       Tot       3.5895
    Quadrupole Moments (Debye-Ang)
        XX    -195.9455     XY       6.8676     YY    -174.4912
        XZ       6.3243     YZ      -5.0349     ZZ    -192.6756

 Total job time:  378.68s(wall), 11389.10s(cpu)
        *  Thank you very much for using Q-Chem.  Have a nice day.  *
