 Q-Chem 5.4, Q-Chem, Inc., Pleasanton, CA (2021)
 Q-Chem 5.4.0 for Intel X86 EM64T Linux

User input:
--------------------------------------------------------------
$molecule
0 1
C	-0.147685	-8.517702	0.284919
C	0.212552	-7.641575	-0.728574
S	-0.661757	-7.638634	1.745304
C	0.083761	-6.264785	-0.374824
H	0.565513	-7.966081	-1.715621
C	-0.405665	-6.072714	0.965104
C	-0.574617	-4.787049	1.502136
C	0.413763	-5.162801	-1.214687
C	0.248748	-3.874817	-0.675870
C	-0.243888	-3.683952	0.664513
O	0.838511	-5.499772	-2.464209
O	-1.000176	-4.459055	2.757750
C	-1.893778	-5.329063	3.441858
H	-2.284868	-4.755694	4.303826
H	-1.383341	-6.238095	3.828743
H	-2.741817	-5.637262	2.792824
C	1.586168	-4.572261	-3.241222
H	1.974033	-5.139743	-4.108274
H	2.441448	-4.153131	-2.668916
H	0.954660	-3.739531	-3.620041
C	-0.369302	-2.306654	1.015668
S	0.517367	-2.306501	-1.453394
C	0.000000	-1.435185	0.000000
H	-0.724300	-1.978138	2.000559
C	0.000000	0.000000	0.000000
S	0.693394	0.581209	1.507541
C	1.897536	1.592607	0.718873
C	0.693330	0.580791	-1.067872
C	1.756758	1.476132	-0.686410
S	0.508573	0.422041	-2.805516
C	1.846879	1.552232	-3.054530
C	2.387897	2.009402	-1.862551
F	3.408741	2.872264	-1.819088
C	2.191300	1.838768	-4.456084
O	1.606694	1.337806	-5.406510
O	3.221062	2.712584	-4.569225
C	3.603677	3.026817	-5.916207
H	4.442623	3.739898	-5.833064
H	2.758956	3.483875	-6.470168
H	3.921969	2.114070	-6.459293
H	2.604650	2.187790	1.306486
H	0.699838	-9.143623	0.588198
H	-0.992270	-9.149441	-0.014470
H	1.017360	-1.443175	0.362373
$end

$rem
JOBTYPE		SP
EXCHANGE	HF
CORRELATION	pRIMP2
BASIS		cc-pvtz
METHOD		rimp2
AUX_BASIS	rimp2-cc-pvtz
SOLVENT_METHOD	PCM
PURECART	11111
SYMMETRY	false
MEM_TOTAL	110000
SCF_CONVERGENCE = 6
THRESH=10
GUI = 2
$end

$solvent
dielectric 4.90
$end
--------------------------------------------------------------

             Standard Nuclear Orientation (Angstroms)
    I     Atom           X                Y                Z
 ----------------------------------------------------------------
    1      C      -0.1476850000    -8.5177020000     0.2849190000
    2      C       0.2125520000    -7.6415750000    -0.7285740000
    3      S      -0.6617570000    -7.6386340000     1.7453040000
    4      C       0.0837610000    -6.2647850000    -0.3748240000
    5      H       0.5655130000    -7.9660810000    -1.7156210000
    6      C      -0.4056650000    -6.0727140000     0.9651040000
    7      C      -0.5746170000    -4.7870490000     1.5021360000
    8      C       0.4137630000    -5.1628010000    -1.2146870000
    9      C       0.2487480000    -3.8748170000    -0.6758700000
   10      C      -0.2438880000    -3.6839520000     0.6645130000
   11      O       0.8385110000    -5.4997720000    -2.4642090000
   12      O      -1.0001760000    -4.4590550000     2.7577500000
   13      C      -1.8937780000    -5.3290630000     3.4418580000
   14      H      -2.2848680000    -4.7556940000     4.3038260000
   15      H      -1.3833410000    -6.2380950000     3.8287430000
   16      H      -2.7418170000    -5.6372620000     2.7928240000
   17      C       1.5861680000    -4.5722610000    -3.2412220000
   18      H       1.9740330000    -5.1397430000    -4.1082740000
   19      H       2.4414480000    -4.1531310000    -2.6689160000
   20      H       0.9546600000    -3.7395310000    -3.6200410000
   21      C      -0.3693020000    -2.3066540000     1.0156680000
   22      S       0.5173670000    -2.3065010000    -1.4533940000
   23      C       0.0000000000    -1.4351850000     0.0000000000
   24      H      -0.7243000000    -1.9781380000     2.0005590000
   25      C       0.0000000000     0.0000000000     0.0000000000
   26      S       0.6933940000     0.5812090000     1.5075410000
   27      C       1.8975360000     1.5926070000     0.7188730000
   28      C       0.6933300000     0.5807910000    -1.0678720000
   29      C       1.7567580000     1.4761320000    -0.6864100000
   30      S       0.5085730000     0.4220410000    -2.8055160000
   31      C       1.8468790000     1.5522320000    -3.0545300000
   32      C       2.3878970000     2.0094020000    -1.8625510000
   33      F       3.4087410000     2.8722640000    -1.8190880000
   34      C       2.1913000000     1.8387680000    -4.4560840000
   35      O       1.6066940000     1.3378060000    -5.4065100000
   36      O       3.2210620000     2.7125840000    -4.5692250000
   37      C       3.6036770000     3.0268170000    -5.9162070000
   38      H       4.4426230000     3.7398980000    -5.8330640000
   39      H       2.7589560000     3.4838750000    -6.4701680000
   40      H       3.9219690000     2.1140700000    -6.4592930000
   41      H       2.6046500000     2.1877900000     1.3064860000
   42      H       0.6998380000    -9.1436230000     0.5881980000
   43      H      -0.9922700000    -9.1494410000    -0.0144700000
   44      H       1.0173600000    -1.4431750000     0.3623730000
 ----------------------------------------------------------------

   11   -2755.2912267322      7.65e-07  Convergence criterion met
 Total energy in the final basis set =    -2755.2912267322
        RIMP2         total energy =     -2760.3962978862 a.u.

                    Orbital Energies (a.u.)
 --------------------------------------------------------------

 Alpha MOs
 -- Occupied --
-92.0080 -91.9999 -91.9740 -91.9583 -26.3441 -20.6155 -20.5870 -20.5867
-20.5621 -11.4102 -11.3835 -11.3204 -11.3083 -11.3077 -11.3040 -11.2983
-11.2916 -11.2893 -11.2873 -11.2835 -11.2828 -11.2795 -11.2777 -11.2727
-11.2670 -11.2580 -11.2569 -11.2501 -11.2381  -9.0082  -9.0002  -8.9765
 -8.9609  -6.6890  -6.6882  -6.6878  -6.6812  -6.6804  -6.6793  -6.6575
 -6.6567  -6.6553  -6.6422  -6.6412  -6.6402  -1.6612  -1.4680  -1.4101
 -1.4087  -1.3707  -1.2394  -1.1997  -1.1741  -1.1405  -1.0988  -1.0493
 -1.0440  -1.0278  -1.0020  -0.9948  -0.9658  -0.9557  -0.9495  -0.9421
 -0.8930  -0.8704  -0.8597  -0.8186  -0.7933  -0.7883  -0.7822  -0.7685
 -0.7568  -0.7376  -0.7262  -0.7145  -0.6957  -0.6933  -0.6854  -0.6814
 -0.6745  -0.6654  -0.6553  -0.6482  -0.6364  -0.6305  -0.6203  -0.6152
 -0.6107  -0.6013  -0.5925  -0.5782  -0.5704  -0.5668  -0.5594  -0.5564
 -0.5432  -0.5332  -0.5309  -0.5253  -0.5147  -0.5120  -0.5073  -0.5006
 -0.4838  -0.4821  -0.4772  -0.4733  -0.4691  -0.4634  -0.4546  -0.4462
 -0.4286  -0.3903  -0.3832  -0.3691  -0.3531  -0.3007  -0.2868  -0.2161

          Ground-State Mulliken Net Atomic Charges

     Atom                 Charge (a.u.)
  ----------------------------------------
      1 C                    -0.070564
      2 C                    -0.255721
      3 S                    -0.135545
      4 C                    -0.049742
      5 H                     0.193992
      6 C                    -0.050551
      7 C                     0.217779
      8 C                     0.228343
      9 C                    -0.073501
     10 C                    -0.025087
     11 O                    -0.334707
     12 O                    -0.343505
     13 C                    -0.082856
     14 H                     0.119708
     15 H                     0.091779
     16 H                     0.093043
     17 C                    -0.088649
     18 H                     0.123918
     19 H                     0.091562
     20 H                     0.092540
     21 C                    -0.330077
     22 S                    -0.096928
     23 C                     0.119645
     24 H                     0.199402
     25 C                    -0.068464
     26 S                     0.072030
     27 C                    -0.164779
     28 C                    -0.035571
     29 C                    -0.088679
     30 S                     0.035908
     31 C                    -0.152204
     32 C                     0.395944
     33 F                    -0.206595
     34 C                     0.446463
     35 O                    -0.460414
     36 O                    -0.300698
     37 C                    -0.058411
     38 H                     0.121509
     39 H                     0.095350
     40 H                     0.095054
     41 H                     0.218906
     42 H                     0.117797
     43 H                     0.115529
     44 H                     0.187044
  ----------------------------------------
  Sum of atomic charges =     0.000000

                    Cartesian Multipole Moments
 -----------------------------------------------------------------
    Charge (ESU x 10^10)
                 0.0000
    Dipole Moment (Debye)
         X       3.1561      Y       1.8593      Z       2.5359
       Tot       4.4552
    Quadrupole Moments (Debye-Ang)
        XX    -184.7608     XY       6.9946     YY    -182.4392
        XZ     -14.8969     YZ      -0.6333     ZZ    -194.1403

 Total job time:  329.41s(wall), 10746.85s(cpu)
        *  Thank you very much for using Q-Chem.  Have a nice day.  *
