 Q-Chem 5.4, Q-Chem, Inc., Pleasanton, CA (2021)
 Q-Chem 5.4.0 for Intel X86 EM64T Linux

User input:
--------------------------------------------------------------
$molecule
0 1
C	-0.270358	-8.517702	0.172904
C	0.548363	-7.641575	-0.524688
S	-1.445750	-7.638634	1.180599
C	0.259951	-6.264785	-0.282727
H	1.347559	-7.966081	-1.203014
C	-0.833868	-6.072714	0.632972
C	-1.248701	-4.787049	1.013580
C	0.965673	-5.162801	-0.845068
C	0.553357	-3.874817	-0.460946
C	-0.543470	-3.683952	0.453541
O	1.958276	-5.499772	-1.714812
O	-2.245053	-4.459055	1.888193
C	-3.360989	-5.329063	2.033848
H	-4.130667	-4.755694	2.584788
H	-3.112380	-6.238095	2.624118
H	-3.770895	-5.637262	1.047748
C	2.994272	-4.572261	-2.013896
H	3.763700	-5.139743	-2.570853
H	3.448815	-4.153131	-1.090625
H	2.636780	-3.739531	-2.657717
C	-0.827659	-2.306654	0.694943
S	1.174750	-2.306501	-0.999993
C	0.000000	-1.435185	0.000000
H	-1.627541	-1.978138	1.370385
C	0.000000	0.000000	0.000000
S	0.234628	0.873813	1.507541
C	0.640889	2.392969	0.718873
C	0.234815	0.873434	-1.067872
C	0.592377	2.216811	-0.686410
S	0.174526	0.637422	-2.805516
C	0.622551	2.330840	-3.054530
C	0.803505	3.015647	-1.862551
F	1.144815	4.307994	-1.819088
C	0.740334	2.763108	-4.456084
O	0.548793	2.017428	-5.406510
O	1.082665	4.069544	-4.569225
C	1.215848	4.546407	-5.916207
H	1.494066	5.611729	-5.833064
H	0.261736	4.436296	-6.470168
H	2.000108	3.981294	-6.459293
H	0.878739	3.286099	1.306486
H	0.311979	-9.143623	0.859314
H	-0.852097	-9.149441	-0.508666
H	0.699874	-1.443175	0.822504
$end

$rem
JOBTYPE		SP
EXCHANGE	HF
CORRELATION	pRIMP2
BASIS		cc-pvtz
METHOD		rimp2
AUX_BASIS	rimp2-cc-pvtz
SOLVENT_METHOD	PCM
PURECART	11111
SYMMETRY	false
MEM_TOTAL	110000
SCF_CONVERGENCE = 6
THRESH=10
GUI = 2
$end

$solvent
dielectric 4.90
$end
--------------------------------------------------------------

             Standard Nuclear Orientation (Angstroms)
    I     Atom           X                Y                Z
 ----------------------------------------------------------------
    1      C      -0.2703580000    -8.5177020000     0.1729040000
    2      C       0.5483630000    -7.6415750000    -0.5246880000
    3      S      -1.4457500000    -7.6386340000     1.1805990000
    4      C       0.2599510000    -6.2647850000    -0.2827270000
    5      H       1.3475590000    -7.9660810000    -1.2030140000
    6      C      -0.8338680000    -6.0727140000     0.6329720000
    7      C      -1.2487010000    -4.7870490000     1.0135800000
    8      C       0.9656730000    -5.1628010000    -0.8450680000
    9      C       0.5533570000    -3.8748170000    -0.4609460000
   10      C      -0.5434700000    -3.6839520000     0.4535410000
   11      O       1.9582760000    -5.4997720000    -1.7148120000
   12      O      -2.2450530000    -4.4590550000     1.8881930000
   13      C      -3.3609890000    -5.3290630000     2.0338480000
   14      H      -4.1306670000    -4.7556940000     2.5847880000
   15      H      -3.1123800000    -6.2380950000     2.6241180000
   16      H      -3.7708950000    -5.6372620000     1.0477480000
   17      C       2.9942720000    -4.5722610000    -2.0138960000
   18      H       3.7637000000    -5.1397430000    -2.5708530000
   19      H       3.4488150000    -4.1531310000    -1.0906250000
   20      H       2.6367800000    -3.7395310000    -2.6577170000
   21      C      -0.8276590000    -2.3066540000     0.6949430000
   22      S       1.1747500000    -2.3065010000    -0.9999930000
   23      C       0.0000000000    -1.4351850000     0.0000000000
   24      H      -1.6275410000    -1.9781380000     1.3703850000
   25      C       0.0000000000     0.0000000000     0.0000000000
   26      S       0.2346280000     0.8738130000     1.5075410000
   27      C       0.6408890000     2.3929690000     0.7188730000
   28      C       0.2348150000     0.8734340000    -1.0678720000
   29      C       0.5923770000     2.2168110000    -0.6864100000
   30      S       0.1745260000     0.6374220000    -2.8055160000
   31      C       0.6225510000     2.3308400000    -3.0545300000
   32      C       0.8035050000     3.0156470000    -1.8625510000
   33      F       1.1448150000     4.3079940000    -1.8190880000
   34      C       0.7403340000     2.7631080000    -4.4560840000
   35      O       0.5487930000     2.0174280000    -5.4065100000
   36      O       1.0826650000     4.0695440000    -4.5692250000
   37      C       1.2158480000     4.5464070000    -5.9162070000
   38      H       1.4940660000     5.6117290000    -5.8330640000
   39      H       0.2617360000     4.4362960000    -6.4701680000
   40      H       2.0001080000     3.9812940000    -6.4592930000
   41      H       0.8787390000     3.2860990000     1.3064860000
   42      H       0.3119790000    -9.1436230000     0.8593140000
   43      H      -0.8520970000    -9.1494410000    -0.5086660000
   44      H       0.6998740000    -1.4431750000     0.8225040000
 ----------------------------------------------------------------

   11   -2755.3408627608      8.05e-07  Convergence criterion met
 Total energy in the final basis set =    -2755.3408627608
        RIMP2         total energy =     -2760.4295477779 a.u.

                    Orbital Energies (a.u.)
 --------------------------------------------------------------

 Alpha MOs
 -- Occupied --
-92.0147 -91.9963 -91.9789 -91.9582 -26.3429 -20.6148 -20.5874 -20.5869
-20.5613 -11.4092 -11.3817 -11.3091 -11.3091 -11.3077 -11.3040 -11.2975
-11.2969 -11.2888 -11.2848 -11.2842 -11.2831 -11.2830 -11.2806 -11.2729
-11.2719 -11.2582 -11.2578 -11.2497 -11.2370  -9.0136  -8.9964  -8.9810
 -8.9608  -6.6944  -6.6938  -6.6933  -6.6774  -6.6767  -6.6755  -6.6621
 -6.6612  -6.6599  -6.6421  -6.6411  -6.6401  -1.6600  -1.4672  -1.4104
 -1.4091  -1.3699  -1.2298  -1.2024  -1.1739  -1.1376  -1.0998  -1.0468
 -1.0438  -1.0246  -1.0038  -0.9968  -0.9633  -0.9576  -0.9485  -0.9411
 -0.8936  -0.8680  -0.8662  -0.8149  -0.7947  -0.7895  -0.7844  -0.7684
 -0.7564  -0.7377  -0.7249  -0.7156  -0.6968  -0.6878  -0.6845  -0.6801
 -0.6738  -0.6617  -0.6560  -0.6487  -0.6366  -0.6300  -0.6200  -0.6152
 -0.6108  -0.5992  -0.5922  -0.5768  -0.5712  -0.5637  -0.5596  -0.5575
 -0.5484  -0.5331  -0.5311  -0.5247  -0.5128  -0.5093  -0.5074  -0.5015
 -0.4850  -0.4801  -0.4762  -0.4736  -0.4692  -0.4678  -0.4605  -0.4470
 -0.4277  -0.3963  -0.3857  -0.3699  -0.3519  -0.2984  -0.2895  -0.2193

          Ground-State Mulliken Net Atomic Charges

     Atom                 Charge (a.u.)
  ----------------------------------------
      1 C                    -0.070077
      2 C                    -0.259597
      3 S                    -0.135911
      4 C                    -0.045885
      5 H                     0.193582
      6 C                    -0.049095
      7 C                     0.219137
      8 C                     0.225283
      9 C                    -0.071632
     10 C                    -0.025721
     11 O                    -0.334711
     12 O                    -0.343644
     13 C                    -0.082847
     14 H                     0.119845
     15 H                     0.092233
     16 H                     0.093138
     17 C                    -0.087817
     18 H                     0.123668
     19 H                     0.092047
     20 H                     0.091574
     21 C                    -0.300895
     22 S                    -0.081153
     23 C                     0.104813
     24 H                     0.203423
     25 C                    -0.041926
     26 S                     0.088086
     27 C                    -0.192502
     28 C                    -0.057757
     29 C                    -0.093751
     30 S                     0.012056
     31 C                    -0.155987
     32 C                     0.398897
     33 F                    -0.207628
     34 C                     0.443887
     35 O                    -0.460154
     36 O                    -0.300679
     37 C                    -0.058517
     38 H                     0.121300
     39 H                     0.095181
     40 H                     0.095063
     41 H                     0.217788
     42 H                     0.117314
     43 H                     0.115103
     44 H                     0.194472
  ----------------------------------------
  Sum of atomic charges =     0.000000

                    Cartesian Multipole Moments
 -----------------------------------------------------------------
    Charge (ESU x 10^10)
                -0.0000
    Dipole Moment (Debye)
         X       1.2346      Y       2.5775      Z       3.3056
       Tot       4.3698
    Quadrupole Moments (Debye-Ang)
        XX    -184.6739     XY       0.8739     YY    -175.7214
        XZ      -8.1850     YZ      -4.5741     ZZ    -203.9372

 Total job time:  371.57s(wall), 11249.52s(cpu)
        *  Thank you very much for using Q-Chem.  Have a nice day.  *
