 Q-Chem 5.4, Q-Chem, Inc., Pleasanton, CA (2021)
 Q-Chem 5.4.0 for Intel X86 EM64T Linux

User input:
--------------------------------------------------------------
$molecule
0 1
C	0.147685	-8.517702	-0.284919
C	-0.212552	-7.641575	0.728574
S	0.661757	-7.638634	-1.745304
C	-0.083761	-6.264785	0.374824
H	-0.565513	-7.966081	1.715621
C	0.405665	-6.072714	-0.965104
C	0.574617	-4.787049	-1.502136
C	-0.413763	-5.162801	1.214687
C	-0.248748	-3.874817	0.675870
C	0.243888	-3.683952	-0.664513
O	-0.838511	-5.499772	2.464209
O	1.000176	-4.459055	-2.757750
C	1.893778	-5.329063	-3.441858
H	2.284868	-4.755694	-4.303826
H	1.383341	-6.238095	-3.828743
H	2.741817	-5.637262	-2.792824
C	-1.586168	-4.572261	3.241222
H	-1.974033	-5.139743	4.108274
H	-2.441448	-4.153131	2.668916
H	-0.954660	-3.739531	3.620041
C	0.369302	-2.306654	-1.015668
S	-0.517367	-2.306501	1.453394
C	0.000000	-1.435185	0.000000
H	0.724300	-1.978138	-2.000559
C	0.000000	0.000000	0.000000
S	0.234628	0.873813	1.507541
C	0.640889	2.392969	0.718873
C	0.234815	0.873434	-1.067872
C	0.592377	2.216811	-0.686410
S	0.174526	0.637422	-2.805516
C	0.622551	2.330840	-3.054530
C	0.803505	3.015647	-1.862551
F	1.144815	4.307994	-1.819088
C	0.740334	2.763108	-4.456084
O	0.548793	2.017428	-5.406510
O	1.082665	4.069544	-4.569225
C	1.215848	4.546407	-5.916207
H	1.494066	5.611729	-5.833064
H	0.261736	4.436296	-6.470168
H	2.000108	3.981294	-6.459293
H	0.878739	3.286099	1.306486
H	-0.699838	-9.143623	-0.588198
H	0.992270	-9.149441	0.014470
H	-1.017360	-1.443175	-0.362373
$end

$rem
JOBTYPE		SP
EXCHANGE	HF
CORRELATION	pRIMP2
BASIS		cc-pvtz
METHOD		rimp2
AUX_BASIS	rimp2-cc-pvtz
SOLVENT_METHOD	PCM
PURECART	11111
SYMMETRY	false
MEM_TOTAL	110000
SCF_CONVERGENCE = 6
THRESH=10
GUI = 2
$end

$solvent
dielectric 4.90
$end
--------------------------------------------------------------

             Standard Nuclear Orientation (Angstroms)
    I     Atom           X                Y                Z
 ----------------------------------------------------------------
    1      C       0.1476850000    -8.5177020000    -0.2849190000
    2      C      -0.2125520000    -7.6415750000     0.7285740000
    3      S       0.6617570000    -7.6386340000    -1.7453040000
    4      C      -0.0837610000    -6.2647850000     0.3748240000
    5      H      -0.5655130000    -7.9660810000     1.7156210000
    6      C       0.4056650000    -6.0727140000    -0.9651040000
    7      C       0.5746170000    -4.7870490000    -1.5021360000
    8      C      -0.4137630000    -5.1628010000     1.2146870000
    9      C      -0.2487480000    -3.8748170000     0.6758700000
   10      C       0.2438880000    -3.6839520000    -0.6645130000
   11      O      -0.8385110000    -5.4997720000     2.4642090000
   12      O       1.0001760000    -4.4590550000    -2.7577500000
   13      C       1.8937780000    -5.3290630000    -3.4418580000
   14      H       2.2848680000    -4.7556940000    -4.3038260000
   15      H       1.3833410000    -6.2380950000    -3.8287430000
   16      H       2.7418170000    -5.6372620000    -2.7928240000
   17      C      -1.5861680000    -4.5722610000     3.2412220000
   18      H      -1.9740330000    -5.1397430000     4.1082740000
   19      H      -2.4414480000    -4.1531310000     2.6689160000
   20      H      -0.9546600000    -3.7395310000     3.6200410000
   21      C       0.3693020000    -2.3066540000    -1.0156680000
   22      S      -0.5173670000    -2.3065010000     1.4533940000
   23      C       0.0000000000    -1.4351850000     0.0000000000
   24      H       0.7243000000    -1.9781380000    -2.0005590000
   25      C       0.0000000000     0.0000000000     0.0000000000
   26      S       0.2346280000     0.8738130000     1.5075410000
   27      C       0.6408890000     2.3929690000     0.7188730000
   28      C       0.2348150000     0.8734340000    -1.0678720000
   29      C       0.5923770000     2.2168110000    -0.6864100000
   30      S       0.1745260000     0.6374220000    -2.8055160000
   31      C       0.6225510000     2.3308400000    -3.0545300000
   32      C       0.8035050000     3.0156470000    -1.8625510000
   33      F       1.1448150000     4.3079940000    -1.8190880000
   34      C       0.7403340000     2.7631080000    -4.4560840000
   35      O       0.5487930000     2.0174280000    -5.4065100000
   36      O       1.0826650000     4.0695440000    -4.5692250000
   37      C       1.2158480000     4.5464070000    -5.9162070000
   38      H       1.4940660000     5.6117290000    -5.8330640000
   39      H       0.2617360000     4.4362960000    -6.4701680000
   40      H       2.0001080000     3.9812940000    -6.4592930000
   41      H       0.8787390000     3.2860990000     1.3064860000
   42      H      -0.6998380000    -9.1436230000    -0.5881980000
   43      H       0.9922700000    -9.1494410000     0.0144700000
   44      H      -1.0173600000    -1.4431750000    -0.3623730000
 ----------------------------------------------------------------

   11   -2755.3379711986      8.37e-07  Convergence criterion met
 Total energy in the final basis set =    -2755.3379711986
        RIMP2         total energy =     -2760.4301373777 a.u.

                    Orbital Energies (a.u.)
 --------------------------------------------------------------

 Alpha MOs
 -- Occupied --
-92.0142 -91.9977 -91.9824 -91.9590 -26.3432 -20.6151 -20.5890 -20.5874
-20.5616 -11.4097 -11.3821 -11.3106 -11.3099 -11.3090 -11.3021 -11.2984
-11.2944 -11.2890 -11.2859 -11.2855 -11.2850 -11.2833 -11.2826 -11.2741
-11.2738 -11.2602 -11.2594 -11.2507 -11.2393  -9.0129  -8.9978  -8.9845
 -8.9616  -6.6937  -6.6931  -6.6926  -6.6789  -6.6782  -6.6770  -6.6657
 -6.6648  -6.6636  -6.6429  -6.6419  -6.6409  -1.6602  -1.4676  -1.4122
 -1.4093  -1.3703  -1.2303  -1.2033  -1.1750  -1.1374  -1.1015  -1.0480
 -1.0455  -1.0235  -1.0045  -0.9992  -0.9629  -0.9595  -0.9495  -0.9410
 -0.8954  -0.8710  -0.8648  -0.8091  -0.8016  -0.7903  -0.7846  -0.7687
 -0.7573  -0.7376  -0.7251  -0.7105  -0.6995  -0.6941  -0.6849  -0.6814
 -0.6741  -0.6640  -0.6572  -0.6493  -0.6389  -0.6314  -0.6210  -0.6155
 -0.6123  -0.5985  -0.5937  -0.5774  -0.5716  -0.5655  -0.5601  -0.5543
 -0.5462  -0.5355  -0.5312  -0.5283  -0.5137  -0.5095  -0.5086  -0.5021
 -0.4853  -0.4823  -0.4771  -0.4739  -0.4701  -0.4663  -0.4621  -0.4480
 -0.4327  -0.3950  -0.3869  -0.3716  -0.3503  -0.2989  -0.2892  -0.2183

          Ground-State Mulliken Net Atomic Charges

     Atom                 Charge (a.u.)
  ----------------------------------------
      1 C                    -0.070606
      2 C                    -0.254366
      3 S                    -0.133314
      4 C                    -0.049998
      5 H                     0.194097
      6 C                    -0.050428
      7 C                     0.221852
      8 C                     0.234597
      9 C                    -0.075387
     10 C                    -0.030668
     11 O                    -0.333940
     12 O                    -0.343228
     13 C                    -0.083263
     14 H                     0.121123
     15 H                     0.092409
     16 H                     0.092851
     17 C                    -0.088309
     18 H                     0.124865
     19 H                     0.093287
     20 H                     0.090210
     21 C                    -0.331575
     22 S                    -0.094317
     23 C                     0.139047
     24 H                     0.200412
     25 C                    -0.038063
     26 S                     0.088864
     27 C                    -0.219647
     28 C                    -0.024308
     29 C                    -0.098739
     30 S                    -0.001736
     31 C                    -0.161893
     32 C                     0.406044
     33 F                    -0.207120
     34 C                     0.442835
     35 O                    -0.460651
     36 O                    -0.300560
     37 C                    -0.058524
     38 H                     0.121553
     39 H                     0.095170
     40 H                     0.095156
     41 H                     0.216386
     42 H                     0.118229
     43 H                     0.115871
     44 H                     0.205783
  ----------------------------------------
  Sum of atomic charges =     0.000000

                    Cartesian Multipole Moments
 -----------------------------------------------------------------
    Charge (ESU x 10^10)
                -0.0000
    Dipole Moment (Debye)
         X      -0.0730      Y       1.7605      Z       3.0151
       Tot       3.4923
    Quadrupole Moments (Debye-Ang)
        XX    -193.5018     XY       5.3397     YY    -172.1498
        XZ     -11.2019     YZ     -11.4596     ZZ    -195.1035

 Total job time:  377.16s(wall), 11436.46s(cpu)
        *  Thank you very much for using Q-Chem.  Have a nice day.  *
