 Q-Chem 5.4, Q-Chem, Inc., Pleasanton, CA (2021)
 Q-Chem 5.4.0 for Intel X86 EM64T Linux

User input:
--------------------------------------------------------------
$molecule
0 1
C	-0.123330	-8.517702	-0.296276
C	0.421494	-7.641575	0.631143
S	-0.911611	-7.638634	-1.628795
C	0.233291	-6.264785	0.305097
H	0.950737	-7.966081	1.535988
C	-0.478557	-6.072714	-0.931114
C	-0.781346	-4.787049	-1.405737
C	0.664542	-5.162801	1.097747
C	0.357854	-3.874817	0.624993
C	-0.352278	-3.683952	-0.613970
O	1.348709	-5.499772	2.226300
O	-1.469658	-4.459055	-2.538827
C	-1.419319	-5.329063	-3.663102
H	-1.828237	-4.755694	-4.516756
H	-2.043793	-6.238095	-3.520769
H	-0.377021	-5.637262	-3.895546
C	1.463351	-4.572261	3.298492
H	1.878237	-5.139743	4.152945
H	0.475176	-4.153131	3.585804
H	2.159469	-3.739531	3.058230
C	-0.540664	-2.306654	-0.935761
S	0.780808	-2.306501	1.330550
C	-0.000000	-1.435185	-0.000000
H	-1.066946	-1.978138	-1.840780
C	0.000000	0.000000	0.000000
S	0.309893	0.850039	1.507541
C	0.847011	2.328006	0.718873
C	0.310046	0.849645	-1.067872
C	0.783331	2.156746	-0.686410
S	0.229416	0.619785	-2.805516
C	0.823328	2.267711	-3.054530
C	1.063278	2.934142	-1.862551
F	1.515925	4.191824	-1.819088
C	0.978337	2.688069	-4.456084
O	0.722535	1.961921	-5.406510
O	1.433229	3.959697	-4.569225
C	1.607467	4.423139	-5.916207
H	1.977475	5.460158	-5.833064
H	0.647388	4.396602	-6.470168
H	2.339490	3.791823	-6.459293
H	1.161798	3.197007	1.306486
H	-0.900433	-9.143623	0.158021
H	0.648903	-9.149441	-0.750822
H	-0.931540	-1.443175	0.546415
$end

$rem
JOBTYPE		SP
EXCHANGE	HF
CORRELATION	pRIMP2
BASIS		cc-pvtz
METHOD		rimp2
AUX_BASIS	rimp2-cc-pvtz
SOLVENT_METHOD	PCM
PURECART	11111
SYMMETRY	false
MEM_TOTAL	110000
SCF_CONVERGENCE = 6
THRESH=10
GUI = 2
$end

$solvent
dielectric 4.90
$end
--------------------------------------------------------------

             Standard Nuclear Orientation (Angstroms)
    I     Atom           X                Y                Z
 ----------------------------------------------------------------
    1      C      -0.1233300000    -8.5177020000    -0.2962760000
    2      C       0.4214940000    -7.6415750000     0.6311430000
    3      S      -0.9116110000    -7.6386340000    -1.6287950000
    4      C       0.2332910000    -6.2647850000     0.3050970000
    5      H       0.9507370000    -7.9660810000     1.5359880000
    6      C      -0.4785570000    -6.0727140000    -0.9311140000
    7      C      -0.7813460000    -4.7870490000    -1.4057370000
    8      C       0.6645420000    -5.1628010000     1.0977470000
    9      C       0.3578540000    -3.8748170000     0.6249930000
   10      C      -0.3522780000    -3.6839520000    -0.6139700000
   11      O       1.3487090000    -5.4997720000     2.2263000000
   12      O      -1.4696580000    -4.4590550000    -2.5388270000
   13      C      -1.4193190000    -5.3290630000    -3.6631020000
   14      H      -1.8282370000    -4.7556940000    -4.5167560000
   15      H      -2.0437930000    -6.2380950000    -3.5207690000
   16      H      -0.3770210000    -5.6372620000    -3.8955460000
   17      C       1.4633510000    -4.5722610000     3.2984920000
   18      H       1.8782370000    -5.1397430000     4.1529450000
   19      H       0.4751760000    -4.1531310000     3.5858040000
   20      H       2.1594690000    -3.7395310000     3.0582300000
   21      C      -0.5406640000    -2.3066540000    -0.9357610000
   22      S       0.7808080000    -2.3065010000     1.3305500000
   23      C       0.0000000000    -1.4351850000     0.0000000000
   24      H      -1.0669460000    -1.9781380000    -1.8407800000
   25      C       0.0000000000     0.0000000000     0.0000000000
   26      S       0.3098930000     0.8500390000     1.5075410000
   27      C       0.8470110000     2.3280060000     0.7188730000
   28      C       0.3100460000     0.8496450000    -1.0678720000
   29      C       0.7833310000     2.1567460000    -0.6864100000
   30      S       0.2294160000     0.6197850000    -2.8055160000
   31      C       0.8233280000     2.2677110000    -3.0545300000
   32      C       1.0632780000     2.9341420000    -1.8625510000
   33      F       1.5159250000     4.1918240000    -1.8190880000
   34      C       0.9783370000     2.6880690000    -4.4560840000
   35      O       0.7225350000     1.9619210000    -5.4065100000
   36      O       1.4332290000     3.9596970000    -4.5692250000
   37      C       1.6074670000     4.4231390000    -5.9162070000
   38      H       1.9774750000     5.4601580000    -5.8330640000
   39      H       0.6473880000     4.3966020000    -6.4701680000
   40      H       2.3394900000     3.7918230000    -6.4592930000
   41      H       1.1617980000     3.1970070000     1.3064860000
   42      H      -0.9004330000    -9.1436230000     0.1580210000
   43      H       0.6489030000    -9.1494410000    -0.7508220000
   44      H      -0.9315400000    -1.4431750000     0.5464150000
 ----------------------------------------------------------------

   11   -2755.3343979428      8.71e-07  Convergence criterion met
 Total energy in the final basis set =    -2755.3343979428
        RIMP2         total energy =     -2760.4258983023 a.u.

                    Orbital Energies (a.u.)
 --------------------------------------------------------------

 Alpha MOs
 -- Occupied --
-92.0155 -91.9978 -91.9808 -91.9581 -26.3433 -20.6151 -20.5877 -20.5870
-20.5617 -11.4097 -11.3824 -11.3093 -11.3083 -11.3078 -11.3038 -11.2984
-11.2964 -11.2890 -11.2853 -11.2851 -11.2841 -11.2823 -11.2807 -11.2742
-11.2728 -11.2584 -11.2584 -11.2496 -11.2367  -9.0144  -8.9979  -8.9830
 -8.9607  -6.6952  -6.6946  -6.6940  -6.6790  -6.6782  -6.6771  -6.6641
 -6.6632  -6.6619  -6.6419  -6.6410  -6.6400  -1.6604  -1.4676  -1.4110
 -1.4089  -1.3703  -1.2300  -1.2030  -1.1739  -1.1379  -1.1002  -1.0468
 -1.0449  -1.0243  -1.0043  -0.9979  -0.9632  -0.9593  -0.9487  -0.9405
 -0.8945  -0.8694  -0.8658  -0.8110  -0.8010  -0.7894  -0.7843  -0.7677
 -0.7568  -0.7378  -0.7253  -0.7150  -0.6983  -0.6880  -0.6849  -0.6805
 -0.6741  -0.6617  -0.6567  -0.6487  -0.6374  -0.6312  -0.6200  -0.6149
 -0.6121  -0.5991  -0.5927  -0.5762  -0.5713  -0.5648  -0.5589  -0.5533
 -0.5473  -0.5344  -0.5310  -0.5293  -0.5141  -0.5084  -0.5080  -0.5011
 -0.4853  -0.4814  -0.4769  -0.4744  -0.4721  -0.4684  -0.4593  -0.4463
 -0.4309  -0.3950  -0.3863  -0.3704  -0.3512  -0.2997  -0.2887  -0.2174

          Ground-State Mulliken Net Atomic Charges

     Atom                 Charge (a.u.)
  ----------------------------------------
      1 C                    -0.070118
      2 C                    -0.261314
      3 S                    -0.135413
      4 C                    -0.044645
      5 H                     0.193226
      6 C                    -0.052348
      7 C                     0.223841
      8 C                     0.222934
      9 C                    -0.075649
     10 C                    -0.048684
     11 O                    -0.334232
     12 O                    -0.343846
     13 C                    -0.082740
     14 H                     0.120841
     15 H                     0.091988
     16 H                     0.093093
     17 C                    -0.088136
     18 H                     0.124033
     19 H                     0.092368
     20 H                     0.089980
     21 C                    -0.275194
     22 S                    -0.082562
     23 C                     0.089561
     24 H                     0.206381
     25 C                    -0.091227
     26 S                     0.070944
     27 C                    -0.184674
     28 C                     0.043470
     29 C                    -0.119790
     30 S                     0.000558
     31 C                    -0.158191
     32 C                     0.402094
     33 F                    -0.206914
     34 C                     0.445176
     35 O                    -0.460350
     36 O                    -0.300767
     37 C                    -0.058470
     38 H                     0.121464
     39 H                     0.095113
     40 H                     0.095244
     41 H                     0.218626
     42 H                     0.117190
     43 H                     0.114998
     44 H                     0.202145
  ----------------------------------------
  Sum of atomic charges =     0.000000

                    Cartesian Multipole Moments
 -----------------------------------------------------------------
    Charge (ESU x 10^10)
                 0.0000
    Dipole Moment (Debye)
         X       0.4544      Y       2.5169      Z       3.4485
       Tot       4.2934
    Quadrupole Moments (Debye-Ang)
        XX    -199.3686     XY       3.1739     YY    -176.4715
        XZ       1.0003     YZ     -10.5577     ZZ    -188.2789

 Total job time:  361.79s(wall), 11125.59s(cpu)
        *  Thank you very much for using Q-Chem.  Have a nice day.  *
