 Q-Chem 5.4, Q-Chem, Inc., Pleasanton, CA (2021)
 Q-Chem 5.4.0 for Intel X86 EM64T Linux

User input:
--------------------------------------------------------------
$molecule
0 1
C	0.041330	-8.517702	-0.318247
C	0.049453	-7.641575	0.757333
S	0.024919	-7.638634	-1.866383
C	0.049488	-6.264785	0.380867
H	0.055368	-7.966081	1.805573
C	0.051115	-6.072714	-1.045647
C	0.026203	-4.787049	-1.608077
C	0.026637	-5.162801	1.282948
C	-0.002586	-3.874817	0.720187
C	0.001903	-3.683952	-0.707853
O	0.054867	-5.499772	2.602386
O	-0.003348	-4.459055	-2.933517
C	0.602384	-5.329063	-3.881999
H	0.675079	-4.755694	-4.825744
H	-0.009592	-6.238095	-4.070972
H	1.621263	-5.637262	-3.562152
C	-0.381947	-4.572261	3.588253
H	-0.449872	-5.139743	4.535674
H	-1.381388	-4.153131	3.342986
H	0.341040	-3.739531	3.728239
C	-0.000348	-2.306654	-1.080725
S	0.010924	-2.306501	1.542694
C	-0.000000	-1.435185	-0.000000
H	-0.003612	-1.978138	-2.127635
C	0.000000	0.000000	0.000000
S	0.581934	0.692785	1.507541
C	1.592155	1.897915	0.718873
C	0.581944	0.692363	-1.067872
C	1.473741	1.758764	-0.686410
S	0.427560	0.503942	-2.805516
C	1.549278	1.849357	-3.054530
C	2.002690	2.393529	-1.862551
F	2.858191	3.420549	-1.819088
C	1.838710	2.191348	-4.456084
O	1.349977	1.596481	-5.406510
O	2.701091	3.230705	-4.569225
C	3.023327	3.606605	-5.916207
H	3.725703	4.454534	-5.833064
H	2.112072	3.910035	-6.470168
H	3.495281	2.762996	-6.459293
H	2.185174	2.606846	1.306486
H	-0.858809	-9.143623	-0.313367
H	0.937378	-9.149441	-0.325780
H	-1.079945	-1.443175	0.007439
$end

$rem
JOBTYPE		SP
EXCHANGE	HF
CORRELATION	pRIMP2
BASIS		cc-pvtz
METHOD		rimp2
AUX_BASIS	rimp2-cc-pvtz
SOLVENT_METHOD	PCM
PURECART	11111
SYMMETRY	false
MEM_TOTAL	110000
SCF_CONVERGENCE = 6
THRESH=10
GUI = 2
$end

$solvent
dielectric 4.90
$end
--------------------------------------------------------------

             Standard Nuclear Orientation (Angstroms)
    I     Atom           X                Y                Z
 ----------------------------------------------------------------
    1      C       0.0413300000    -8.5177020000    -0.3182470000
    2      C       0.0494530000    -7.6415750000     0.7573330000
    3      S       0.0249190000    -7.6386340000    -1.8663830000
    4      C       0.0494880000    -6.2647850000     0.3808670000
    5      H       0.0553680000    -7.9660810000     1.8055730000
    6      C       0.0511150000    -6.0727140000    -1.0456470000
    7      C       0.0262030000    -4.7870490000    -1.6080770000
    8      C       0.0266370000    -5.1628010000     1.2829480000
    9      C      -0.0025860000    -3.8748170000     0.7201870000
   10      C       0.0019030000    -3.6839520000    -0.7078530000
   11      O       0.0548670000    -5.4997720000     2.6023860000
   12      O      -0.0033480000    -4.4590550000    -2.9335170000
   13      C       0.6023840000    -5.3290630000    -3.8819990000
   14      H       0.6750790000    -4.7556940000    -4.8257440000
   15      H      -0.0095920000    -6.2380950000    -4.0709720000
   16      H       1.6212630000    -5.6372620000    -3.5621520000
   17      C      -0.3819470000    -4.5722610000     3.5882530000
   18      H      -0.4498720000    -5.1397430000     4.5356740000
   19      H      -1.3813880000    -4.1531310000     3.3429860000
   20      H       0.3410400000    -3.7395310000     3.7282390000
   21      C      -0.0003480000    -2.3066540000    -1.0807250000
   22      S       0.0109240000    -2.3065010000     1.5426940000
   23      C       0.0000000000    -1.4351850000     0.0000000000
   24      H      -0.0036120000    -1.9781380000    -2.1276350000
   25      C       0.0000000000     0.0000000000     0.0000000000
   26      S       0.5819340000     0.6927850000     1.5075410000
   27      C       1.5921550000     1.8979150000     0.7188730000
   28      C       0.5819440000     0.6923630000    -1.0678720000
   29      C       1.4737410000     1.7587640000    -0.6864100000
   30      S       0.4275600000     0.5039420000    -2.8055160000
   31      C       1.5492780000     1.8493570000    -3.0545300000
   32      C       2.0026900000     2.3935290000    -1.8625510000
   33      F       2.8581910000     3.4205490000    -1.8190880000
   34      C       1.8387100000     2.1913480000    -4.4560840000
   35      O       1.3499770000     1.5964810000    -5.4065100000
   36      O       2.7010910000     3.2307050000    -4.5692250000
   37      C       3.0233270000     3.6066050000    -5.9162070000
   38      H       3.7257030000     4.4545340000    -5.8330640000
   39      H       2.1120720000     3.9100350000    -6.4701680000
   40      H       3.4952810000     2.7629960000    -6.4592930000
   41      H       2.1851740000     2.6068460000     1.3064860000
   42      H      -0.8588090000    -9.1436230000    -0.3133670000
   43      H       0.9373780000    -9.1494410000    -0.3257800000
   44      H      -1.0799450000    -1.4431750000     0.0074390000
 ----------------------------------------------------------------

   11   -2755.3027037515      8.43e-07  Convergence criterion met
 Total energy in the final basis set =    -2755.3027037515
        RIMP2         total energy =     -2760.4042548184 a.u.

                    Orbital Energies (a.u.)
 --------------------------------------------------------------

 Alpha MOs
 -- Occupied --
-92.0132 -92.0023 -91.9807 -91.9567 -26.3445 -20.6155 -20.5869 -20.5865
-20.5620 -11.4103 -11.3842 -11.3138 -11.3088 -11.3069 -11.3031 -11.2987
-11.2942 -11.2894 -11.2862 -11.2849 -11.2836 -11.2819 -11.2772 -11.2741
-11.2705 -11.2574 -11.2554 -11.2483 -11.2339  -9.0125  -9.0025  -8.9828
 -8.9593  -6.6932  -6.6925  -6.6920  -6.6835  -6.6827  -6.6816  -6.6639
 -6.6631  -6.6618  -6.6405  -6.6396  -6.6386  -1.6615  -1.4680  -1.4103
 -1.4083  -1.3708  -1.2334  -1.2021  -1.1727  -1.1389  -1.0994  -1.0472
 -1.0457  -1.0256  -1.0030  -0.9971  -0.9640  -0.9596  -0.9481  -0.9408
 -0.8941  -0.8708  -0.8633  -0.8116  -0.8004  -0.7908  -0.7826  -0.7662
 -0.7576  -0.7370  -0.7263  -0.7133  -0.6982  -0.6915  -0.6853  -0.6811
 -0.6746  -0.6623  -0.6564  -0.6483  -0.6390  -0.6308  -0.6187  -0.6141
 -0.6118  -0.6002  -0.5927  -0.5782  -0.5701  -0.5658  -0.5584  -0.5561
 -0.5404  -0.5353  -0.5304  -0.5274  -0.5134  -0.5097  -0.5075  -0.4998
 -0.4859  -0.4820  -0.4769  -0.4744  -0.4701  -0.4647  -0.4569  -0.4457
 -0.4323  -0.3926  -0.3851  -0.3698  -0.3498  -0.3019  -0.2874  -0.2136

          Ground-State Mulliken Net Atomic Charges

     Atom                 Charge (a.u.)
  ----------------------------------------
      1 C                    -0.069458
      2 C                    -0.269891
      3 S                    -0.139212
      4 C                    -0.045282
      5 H                     0.192193
      6 C                    -0.054536
      7 C                     0.229528
      8 C                     0.226813
      9 C                    -0.073330
     10 C                    -0.053633
     11 O                    -0.334276
     12 O                    -0.344695
     13 C                    -0.083233
     14 H                     0.121024
     15 H                     0.092454
     16 H                     0.092690
     17 C                    -0.088772
     18 H                     0.124463
     19 H                     0.092372
     20 H                     0.089343
     21 C                    -0.255290
     22 S                    -0.099941
     23 C                     0.069607
     24 H                     0.199277
     25 C                    -0.066307
     26 S                     0.090891
     27 C                    -0.187344
     28 C                    -0.005101
     29 C                    -0.100082
     30 S                     0.020782
     31 C                    -0.163586
     32 C                     0.406467
     33 F                    -0.205616
     34 C                     0.447084
     35 O                    -0.461404
     36 O                    -0.300952
     37 C                    -0.058424
     38 H                     0.121630
     39 H                     0.095218
     40 H                     0.095223
     41 H                     0.218750
     42 H                     0.115971
     43 H                     0.113665
     44 H                     0.204922
  ----------------------------------------
  Sum of atomic charges =     0.000000

                    Cartesian Multipole Moments
 -----------------------------------------------------------------
    Charge (ESU x 10^10)
                 0.0000
    Dipole Moment (Debye)
         X       1.3657      Y       2.8911      Z       2.9945
       Tot       4.3807
    Quadrupole Moments (Debye-Ang)
        XX    -193.1258     XY       8.0761     YY    -185.8208
        XZ     -10.4848     YZ      -9.7393     ZZ    -189.0879

 Total job time:  344.96s(wall), 10213.55s(cpu)
        *  Thank you very much for using Q-Chem.  Have a nice day.  *
