 Q-Chem 5.4, Q-Chem, Inc., Pleasanton, CA (2021)
 Q-Chem 5.4.0 for Intel X86 EM64T Linux

User input:
--------------------------------------------------------------
$molecule
0 1
C	-0.194917	-8.517702	0.254945
C	0.335839	-7.641575	-0.680596
S	-0.954772	-7.638634	1.603876
C	0.147576	-6.264785	-0.354585
H	0.854836	-7.966081	-1.591356
C	-0.567090	-6.072714	0.879999
C	-0.826731	-4.787049	1.379534
C	0.618405	-5.162801	-1.124384
C	0.362333	-3.874817	-0.622407
C	-0.355575	-3.683952	0.612067
O	1.253677	-5.499772	-2.281166
O	-1.463859	-4.459055	2.542174
C	-2.462679	-5.329063	3.060718
H	-2.997507	-4.755694	3.841678
H	-2.027179	-6.238095	3.530361
H	-3.185132	-5.637262	2.274283
C	2.124902	-4.572261	-2.916545
H	2.657438	-5.139743	-3.703073
H	2.867810	-4.153131	-2.204417
H	1.568770	-3.739531	-3.399269
C	-0.540061	-2.306654	0.936109
S	0.761887	-2.306501	-1.341474
C	-0.000000	-1.435185	-0.000000
H	-1.060690	-1.978138	1.844392
C	0.000000	0.000000	0.000000
S	0.309893	0.850039	1.507541
C	0.847011	2.328006	0.718873
C	0.310046	0.849645	-1.067872
C	0.783331	2.156746	-0.686410
S	0.229416	0.619785	-2.805516
C	0.823328	2.267711	-3.054530
C	1.063278	2.934142	-1.862551
F	1.515925	4.191824	-1.819088
C	0.978337	2.688069	-4.456084
O	0.722535	1.961921	-5.406510
O	1.433229	3.959697	-4.569225
C	1.607467	4.423139	-5.916207
H	1.977475	5.460158	-5.833064
H	0.647388	4.396602	-6.470168
H	2.339490	3.791823	-6.459293
H	1.161798	3.197007	1.306486
H	0.587067	-9.143623	0.700788
H	-0.974683	-9.149441	-0.186556
H	0.938979	-1.443175	0.533530
$end

$rem
JOBTYPE		SP
EXCHANGE	HF
CORRELATION	pRIMP2
BASIS		cc-pvtz
METHOD		rimp2
AUX_BASIS	rimp2-cc-pvtz
SOLVENT_METHOD	PCM
PURECART	11111
SYMMETRY	false
MEM_TOTAL	110000
SCF_CONVERGENCE = 6
THRESH=10
GUI = 2
$end

$solvent
dielectric 4.90
$end
--------------------------------------------------------------

             Standard Nuclear Orientation (Angstroms)
    I     Atom           X                Y                Z
 ----------------------------------------------------------------
    1      C      -0.1949170000    -8.5177020000     0.2549450000
    2      C       0.3358390000    -7.6415750000    -0.6805960000
    3      S      -0.9547720000    -7.6386340000     1.6038760000
    4      C       0.1475760000    -6.2647850000    -0.3545850000
    5      H       0.8548360000    -7.9660810000    -1.5913560000
    6      C      -0.5670900000    -6.0727140000     0.8799990000
    7      C      -0.8267310000    -4.7870490000     1.3795340000
    8      C       0.6184050000    -5.1628010000    -1.1243840000
    9      C       0.3623330000    -3.8748170000    -0.6224070000
   10      C      -0.3555750000    -3.6839520000     0.6120670000
   11      O       1.2536770000    -5.4997720000    -2.2811660000
   12      O      -1.4638590000    -4.4590550000     2.5421740000
   13      C      -2.4626790000    -5.3290630000     3.0607180000
   14      H      -2.9975070000    -4.7556940000     3.8416780000
   15      H      -2.0271790000    -6.2380950000     3.5303610000
   16      H      -3.1851320000    -5.6372620000     2.2742830000
   17      C       2.1249020000    -4.5722610000    -2.9165450000
   18      H       2.6574380000    -5.1397430000    -3.7030730000
   19      H       2.8678100000    -4.1531310000    -2.2044170000
   20      H       1.5687700000    -3.7395310000    -3.3992690000
   21      C      -0.5400610000    -2.3066540000     0.9361090000
   22      S       0.7618870000    -2.3065010000    -1.3414740000
   23      C       0.0000000000    -1.4351850000     0.0000000000
   24      H      -1.0606900000    -1.9781380000     1.8443920000
   25      C       0.0000000000     0.0000000000     0.0000000000
   26      S       0.3098930000     0.8500390000     1.5075410000
   27      C       0.8470110000     2.3280060000     0.7188730000
   28      C       0.3100460000     0.8496450000    -1.0678720000
   29      C       0.7833310000     2.1567460000    -0.6864100000
   30      S       0.2294160000     0.6197850000    -2.8055160000
   31      C       0.8233280000     2.2677110000    -3.0545300000
   32      C       1.0632780000     2.9341420000    -1.8625510000
   33      F       1.5159250000     4.1918240000    -1.8190880000
   34      C       0.9783370000     2.6880690000    -4.4560840000
   35      O       0.7225350000     1.9619210000    -5.4065100000
   36      O       1.4332290000     3.9596970000    -4.5692250000
   37      C       1.6074670000     4.4231390000    -5.9162070000
   38      H       1.9774750000     5.4601580000    -5.8330640000
   39      H       0.6473880000     4.3966020000    -6.4701680000
   40      H       2.3394900000     3.7918230000    -6.4592930000
   41      H       1.1617980000     3.1970070000     1.3064860000
   42      H       0.5870670000    -9.1436230000     0.7007880000
   43      H      -0.9746830000    -9.1494410000    -0.1865560000
   44      H       0.9389790000    -1.4431750000     0.5335300000
 ----------------------------------------------------------------

   11   -2755.3376143209      8.36e-07  Convergence criterion met
 Total energy in the final basis set =    -2755.3376143209
        RIMP2         total energy =     -2760.4286950863 a.u.

                    Orbital Energies (a.u.)
 --------------------------------------------------------------

 Alpha MOs
 -- Occupied --
-92.0124 -91.9947 -91.9794 -91.9593 -26.3423 -20.6146 -20.5879 -20.5878
-20.5612 -11.4090 -11.3809 -11.3097 -11.3096 -11.3072 -11.3056 -11.2971
-11.2942 -11.2887 -11.2845 -11.2844 -11.2835 -11.2834 -11.2824 -11.2745
-11.2713 -11.2600 -11.2592 -11.2509 -11.2396  -9.0116  -8.9950  -8.9816
 -8.9619  -6.6924  -6.6918  -6.6912  -6.6760  -6.6753  -6.6741  -6.6627
 -6.6618  -6.6605  -6.6432  -6.6422  -6.6412  -1.6595  -1.4670  -1.4113
 -1.4096  -1.3697  -1.2308  -1.2022  -1.1750  -1.1376  -1.1004  -1.0480
 -1.0439  -1.0244  -1.0042  -0.9974  -0.9635  -0.9570  -0.9493  -0.9416
 -0.8944  -0.8682  -0.8655  -0.8152  -0.7933  -0.7898  -0.7846  -0.7695
 -0.7562  -0.7378  -0.7244  -0.7140  -0.6970  -0.6898  -0.6844  -0.6809
 -0.6736  -0.6632  -0.6563  -0.6492  -0.6377  -0.6306  -0.6211  -0.6157
 -0.6110  -0.5993  -0.5930  -0.5770  -0.5710  -0.5649  -0.5594  -0.5584
 -0.5484  -0.5335  -0.5310  -0.5257  -0.5140  -0.5113  -0.5080  -0.5016
 -0.4846  -0.4790  -0.4765  -0.4735  -0.4695  -0.4670  -0.4597  -0.4478
 -0.4305  -0.3946  -0.3860  -0.3710  -0.3518  -0.2977  -0.2887  -0.2190

          Ground-State Mulliken Net Atomic Charges

     Atom                 Charge (a.u.)
  ----------------------------------------
      1 C                    -0.070584
      2 C                    -0.252104
      3 S                    -0.133395
      4 C                    -0.049990
      5 H                     0.194574
      6 C                    -0.047913
      7 C                     0.215513
      8 C                     0.229689
      9 C                    -0.074194
     10 C                    -0.013444
     11 O                    -0.334164
     12 O                    -0.343621
     13 C                    -0.082757
     14 H                     0.119968
     15 H                     0.092094
     16 H                     0.093235
     17 C                    -0.089454
     18 H                     0.124443
     19 H                     0.092646
     20 H                     0.092271
     21 C                    -0.330016
     22 S                    -0.096206
     23 C                     0.136901
     24 H                     0.200191
     25 C                     0.003357
     26 S                     0.082548
     27 C                    -0.208951
     28 C                    -0.097768
     29 C                    -0.086763
     30 S                     0.006122
     31 C                    -0.160059
     32 C                     0.406099
     33 F                    -0.208102
     34 C                     0.442057
     35 O                    -0.460104
     36 O                    -0.300660
     37 C                    -0.058582
     38 H                     0.121328
     39 H                     0.095204
     40 H                     0.094981
     41 H                     0.216509
     42 H                     0.118433
     43 H                     0.116189
     44 H                     0.204479
  ----------------------------------------
  Sum of atomic charges =     0.000000

                    Cartesian Multipole Moments
 -----------------------------------------------------------------
    Charge (ESU x 10^10)
                -0.0000
    Dipole Moment (Debye)
         X       1.5443      Y       1.6926      Z       3.0561
       Tot       3.8196
    Quadrupole Moments (Debye-Ang)
        XX    -189.4719     XY       2.8175     YY    -172.4736
        XZ     -11.8999     YZ      -3.2864     ZZ    -198.4203

 Total job time:  372.56s(wall), 11328.03s(cpu)
        *  Thank you very much for using Q-Chem.  Have a nice day.  *
