 Q-Chem 5.4, Q-Chem, Inc., Pleasanton, CA (2021)
 Q-Chem 5.4.0 for Intel X86 EM64T Linux

User input:
--------------------------------------------------------------
$molecule
0 1
C	0.306235	-8.517702	0.095966
C	-0.754415	-7.641575	-0.082807
S	1.833702	-7.638634	0.348635
C	-0.383675	-6.264785	-0.017401
H	-1.787757	-7.966081	-0.259008
C	1.020885	-6.072714	0.231913
C	1.579097	-4.787049	0.305044
C	-1.268082	-5.162801	-0.196549
C	-0.708796	-3.874817	-0.127606
C	0.696769	-3.683952	0.124792
O	-2.572378	-5.499772	-0.397867
O	2.889532	-4.459055	0.506103
C	3.718420	-5.329063	1.267335
H	4.635204	-4.755694	1.502804
H	4.010790	-6.238095	0.697471
H	3.226506	-5.637262	2.215194
C	-3.467415	-4.572261	-0.999238
H	-4.388648	-5.139743	-1.230649
H	-3.052323	-4.153131	-1.940905
H	-3.730819	-3.739531	-0.311543
C	1.064366	-2.306654	0.187323
S	-1.521154	-2.306501	-0.257128
C	-0.000000	-1.435185	-0.000000
H	2.095939	-1.978138	0.365903
C	0.000000	0.000000	0.000000
S	0.157577	0.890937	1.507541
C	0.429889	2.439720	0.718873
C	0.157797	0.890576	-1.067872
C	0.396915	2.260004	-0.686410
S	0.118307	0.650207	-2.805516
C	0.417036	2.376229	-3.054530
C	0.537616	3.074202	-1.862551
F	0.764992	4.391378	-1.819088
C	0.496696	2.817118	-4.456084
O	0.370874	2.057582	-5.406510
O	0.723861	4.148418	-4.569225
C	0.814976	4.635075	-5.916207
H	0.999286	5.720591	-5.833064
H	-0.125909	4.442226	-6.470168
H	1.645504	4.140465	-6.459293
H	0.588993	3.350182	1.306486
H	0.457736	-9.143623	-0.791346
H	0.158056	-9.149441	0.979708
H	0.180205	-1.443175	-1.064830
$end

$rem
JOBTYPE		SP
EXCHANGE	HF
CORRELATION	pRIMP2
BASIS		cc-pvtz
METHOD		rimp2
AUX_BASIS	rimp2-cc-pvtz
SOLVENT_METHOD	PCM
PURECART	11111
SYMMETRY	false
MEM_TOTAL	110000
SCF_CONVERGENCE = 6
THRESH=10
GUI = 2
$end

$solvent
dielectric 4.90
$end
--------------------------------------------------------------

             Standard Nuclear Orientation (Angstroms)
    I     Atom           X                Y                Z
 ----------------------------------------------------------------
    1      C       0.3062350000    -8.5177020000     0.0959660000
    2      C      -0.7544150000    -7.6415750000    -0.0828070000
    3      S       1.8337020000    -7.6386340000     0.3486350000
    4      C      -0.3836750000    -6.2647850000    -0.0174010000
    5      H      -1.7877570000    -7.9660810000    -0.2590080000
    6      C       1.0208850000    -6.0727140000     0.2319130000
    7      C       1.5790970000    -4.7870490000     0.3050440000
    8      C      -1.2680820000    -5.1628010000    -0.1965490000
    9      C      -0.7087960000    -3.8748170000    -0.1276060000
   10      C       0.6967690000    -3.6839520000     0.1247920000
   11      O      -2.5723780000    -5.4997720000    -0.3978670000
   12      O       2.8895320000    -4.4590550000     0.5061030000
   13      C       3.7184200000    -5.3290630000     1.2673350000
   14      H       4.6352040000    -4.7556940000     1.5028040000
   15      H       4.0107900000    -6.2380950000     0.6974710000
   16      H       3.2265060000    -5.6372620000     2.2151940000
   17      C      -3.4674150000    -4.5722610000    -0.9992380000
   18      H      -4.3886480000    -5.1397430000    -1.2306490000
   19      H      -3.0523230000    -4.1531310000    -1.9409050000
   20      H      -3.7308190000    -3.7395310000    -0.3115430000
   21      C       1.0643660000    -2.3066540000     0.1873230000
   22      S      -1.5211540000    -2.3065010000    -0.2571280000
   23      C       0.0000000000    -1.4351850000     0.0000000000
   24      H       2.0959390000    -1.9781380000     0.3659030000
   25      C       0.0000000000     0.0000000000     0.0000000000
   26      S       0.1575770000     0.8909370000     1.5075410000
   27      C       0.4298890000     2.4397200000     0.7188730000
   28      C       0.1577970000     0.8905760000    -1.0678720000
   29      C       0.3969150000     2.2600040000    -0.6864100000
   30      S       0.1183070000     0.6502070000    -2.8055160000
   31      C       0.4170360000     2.3762290000    -3.0545300000
   32      C       0.5376160000     3.0742020000    -1.8625510000
   33      F       0.7649920000     4.3913780000    -1.8190880000
   34      C       0.4966960000     2.8171180000    -4.4560840000
   35      O       0.3708740000     2.0575820000    -5.4065100000
   36      O       0.7238610000     4.1484180000    -4.5692250000
   37      C       0.8149760000     4.6350750000    -5.9162070000
   38      H       0.9992860000     5.7205910000    -5.8330640000
   39      H      -0.1259090000     4.4422260000    -6.4701680000
   40      H       1.6455040000     4.1404650000    -6.4592930000
   41      H       0.5889930000     3.3501820000     1.3064860000
   42      H       0.4577360000    -9.1436230000    -0.7913460000
   43      H       0.1580560000    -9.1494410000     0.9797080000
   44      H       0.1802050000    -1.4431750000    -1.0648300000
 ----------------------------------------------------------------

   11   -2755.3467061772      6.82e-07  Convergence criterion met
 Total energy in the final basis set =    -2755.3467061772
        RIMP2         total energy =     -2760.4348471016 a.u.

                    Orbital Energies (a.u.)
 --------------------------------------------------------------

 Alpha MOs
 -- Occupied --
-92.0117 -92.0004 -91.9756 -91.9583 -26.3446 -20.6153 -20.5872 -20.5865
-20.5618 -11.4101 -11.3842 -11.3118 -11.3089 -11.3067 -11.3043 -11.3009
-11.2987 -11.2892 -11.2853 -11.2839 -11.2829 -11.2823 -11.2799 -11.2732
-11.2716 -11.2581 -11.2580 -11.2497 -11.2371  -9.0106  -9.0005  -8.9779
 -8.9609  -6.6914  -6.6908  -6.6903  -6.6816  -6.6808  -6.6797  -6.6590
 -6.6581  -6.6568  -6.6421  -6.6412  -6.6402  -1.6616  -1.4678  -1.4101
 -1.4088  -1.3705  -1.2297  -1.2023  -1.1733  -1.1370  -1.1008  -1.0468
 -1.0453  -1.0236  -1.0032  -0.9968  -0.9630  -0.9582  -0.9485  -0.9415
 -0.8929  -0.8711  -0.8648  -0.8143  -0.7948  -0.7901  -0.7846  -0.7681
 -0.7589  -0.7352  -0.7263  -0.7102  -0.7010  -0.6946  -0.6853  -0.6798
 -0.6744  -0.6651  -0.6553  -0.6484  -0.6347  -0.6304  -0.6201  -0.6149
 -0.6110  -0.5992  -0.5925  -0.5774  -0.5704  -0.5647  -0.5576  -0.5547
 -0.5501  -0.5316  -0.5291  -0.5253  -0.5129  -0.5089  -0.5071  -0.5014
 -0.4856  -0.4809  -0.4763  -0.4745  -0.4717  -0.4674  -0.4601  -0.4459
 -0.4226  -0.4003  -0.3849  -0.3700  -0.3505  -0.3024  -0.2892  -0.2209

          Ground-State Mulliken Net Atomic Charges

     Atom                 Charge (a.u.)
  ----------------------------------------
      1 C                    -0.070373
      2 C                    -0.258764
      3 S                    -0.134977
      4 C                    -0.044869
      5 H                     0.193576
      6 C                    -0.051648
      7 C                     0.223578
      8 C                     0.228950
      9 C                    -0.083991
     10 C                    -0.058704
     11 O                    -0.335507
     12 O                    -0.343416
     13 C                    -0.082576
     14 H                     0.119948
     15 H                     0.092096
     16 H                     0.092573
     17 C                    -0.086334
     18 H                     0.122737
     19 H                     0.092811
     20 H                     0.090119
     21 C                    -0.232787
     22 S                    -0.071168
     23 C                     0.052897
     24 H                     0.206847
     25 C                    -0.081867
     26 S                     0.088267
     27 C                    -0.179341
     28 C                     0.012886
     29 C                    -0.109498
     30 S                     0.002376
     31 C                    -0.159702
     32 C                     0.399187
     33 F                    -0.205652
     34 C                     0.444139
     35 O                    -0.461235
     36 O                    -0.300829
     37 C                    -0.058604
     38 H                     0.121496
     39 H                     0.095257
     40 H                     0.095207
     41 H                     0.217412
     42 H                     0.117581
     43 H                     0.115087
     44 H                     0.186818
  ----------------------------------------
  Sum of atomic charges =     0.000000

                    Cartesian Multipole Moments
 -----------------------------------------------------------------
    Charge (ESU x 10^10)
                -0.0000
    Dipole Moment (Debye)
         X       0.4869      Y       2.9218      Z       2.3604
       Tot       3.7876
    Quadrupole Moments (Debye-Ang)
        XX    -187.3414     XY       6.3814     YY    -174.5807
        XZ       6.6020     YZ      -6.9754     ZZ    -202.0317

 Total job time:  355.04s(wall), 11310.22s(cpu)
        *  Thank you very much for using Q-Chem.  Have a nice day.  *
