 Q-Chem 5.4, Q-Chem, Inc., Pleasanton, CA (2021)
 Q-Chem 5.4.0 for Intel X86 EM64T Linux

User input:
--------------------------------------------------------------
$molecule
0 1
C	0.284919	-8.517702	0.147685
C	-0.728574	-7.641575	-0.212552
S	1.745304	-7.638634	0.661757
C	-0.374824	-6.264785	-0.083761
H	-1.715621	-7.966081	-0.565513
C	0.965104	-6.072714	0.405665
C	1.502136	-4.787049	0.574617
C	-1.214687	-5.162801	-0.413763
C	-0.675870	-3.874817	-0.248748
C	0.664513	-3.683952	0.243888
O	-2.464209	-5.499772	-0.838511
O	2.757750	-4.459055	1.000176
C	3.441858	-5.329063	1.893778
H	4.303826	-4.755694	2.284868
H	3.828743	-6.238095	1.383341
H	2.792824	-5.637262	2.741817
C	-3.241222	-4.572261	-1.586168
H	-4.108274	-5.139743	-1.974033
H	-2.668916	-4.153131	-2.441448
H	-3.620041	-3.739531	-0.954660
C	1.015668	-2.306654	0.369302
S	-1.453394	-2.306501	-0.517367
C	-0.000000	-1.435185	-0.000000
H	2.000559	-1.978138	0.724300
C	0.000000	0.000000	0.000000
S	0.783786	0.451972	1.507541
C	2.145261	1.238908	0.718873
C	0.783650	0.451572	-1.067872
C	1.986396	1.148648	-0.686410
S	0.574133	0.327317	-2.805516
C	2.088363	1.207943	-3.054530
C	2.700548	1.564221	-1.862551
F	3.855718	2.236706	-1.819088
C	2.477307	1.430318	-4.456084
O	1.814592	1.038482	-5.406510
O	3.643162	2.112042	-4.569225
C	4.074530	2.355061	-5.916207
H	5.024556	2.911627	-5.833064
H	3.322010	2.951860	-6.470168
H	4.229490	1.400910	-6.459293
H	2.944986	1.702260	1.306486
H	0.588198	-9.143623	-0.699838
H	-0.014470	-9.149441	0.992270
H	0.362373	-1.443175	-1.017360
$end

$rem
JOBTYPE		SP
EXCHANGE	HF
CORRELATION	pRIMP2
BASIS		cc-pvtz
METHOD		rimp2
AUX_BASIS	rimp2-cc-pvtz
SOLVENT_METHOD	PCM
PURECART	11111
SYMMETRY	false
MEM_TOTAL	110000
SCF_CONVERGENCE = 6
THRESH=10
GUI = 2
$end

$solvent
dielectric 4.90
$end
--------------------------------------------------------------

             Standard Nuclear Orientation (Angstroms)
    I     Atom           X                Y                Z
 ----------------------------------------------------------------
    1      C       0.2849190000    -8.5177020000     0.1476850000
    2      C      -0.7285740000    -7.6415750000    -0.2125520000
    3      S       1.7453040000    -7.6386340000     0.6617570000
    4      C      -0.3748240000    -6.2647850000    -0.0837610000
    5      H      -1.7156210000    -7.9660810000    -0.5655130000
    6      C       0.9651040000    -6.0727140000     0.4056650000
    7      C       1.5021360000    -4.7870490000     0.5746170000
    8      C      -1.2146870000    -5.1628010000    -0.4137630000
    9      C      -0.6758700000    -3.8748170000    -0.2487480000
   10      C       0.6645130000    -3.6839520000     0.2438880000
   11      O      -2.4642090000    -5.4997720000    -0.8385110000
   12      O       2.7577500000    -4.4590550000     1.0001760000
   13      C       3.4418580000    -5.3290630000     1.8937780000
   14      H       4.3038260000    -4.7556940000     2.2848680000
   15      H       3.8287430000    -6.2380950000     1.3833410000
   16      H       2.7928240000    -5.6372620000     2.7418170000
   17      C      -3.2412220000    -4.5722610000    -1.5861680000
   18      H      -4.1082740000    -5.1397430000    -1.9740330000
   19      H      -2.6689160000    -4.1531310000    -2.4414480000
   20      H      -3.6200410000    -3.7395310000    -0.9546600000
   21      C       1.0156680000    -2.3066540000     0.3693020000
   22      S      -1.4533940000    -2.3065010000    -0.5173670000
   23      C       0.0000000000    -1.4351850000     0.0000000000
   24      H       2.0005590000    -1.9781380000     0.7243000000
   25      C       0.0000000000     0.0000000000     0.0000000000
   26      S       0.7837860000     0.4519720000     1.5075410000
   27      C       2.1452610000     1.2389080000     0.7188730000
   28      C       0.7836500000     0.4515720000    -1.0678720000
   29      C       1.9863960000     1.1486480000    -0.6864100000
   30      S       0.5741330000     0.3273170000    -2.8055160000
   31      C       2.0883630000     1.2079430000    -3.0545300000
   32      C       2.7005480000     1.5642210000    -1.8625510000
   33      F       3.8557180000     2.2367060000    -1.8190880000
   34      C       2.4773070000     1.4303180000    -4.4560840000
   35      O       1.8145920000     1.0384820000    -5.4065100000
   36      O       3.6431620000     2.1120420000    -4.5692250000
   37      C       4.0745300000     2.3550610000    -5.9162070000
   38      H       5.0245560000     2.9116270000    -5.8330640000
   39      H       3.3220100000     2.9518600000    -6.4701680000
   40      H       4.2294900000     1.4009100000    -6.4592930000
   41      H       2.9449860000     1.7022600000     1.3064860000
   42      H       0.5881980000    -9.1436230000    -0.6998380000
   43      H      -0.0144700000    -9.1494410000     0.9922700000
   44      H       0.3623730000    -1.4431750000    -1.0173600000
 ----------------------------------------------------------------

   11   -2755.2711108854      7.81e-07  Convergence criterion met
 Total energy in the final basis set =    -2755.2711108854
        RIMP2         total energy =     -2760.3756193725 a.u.

                    Orbital Energies (a.u.)
 --------------------------------------------------------------

 Alpha MOs
 -- Occupied --
-92.0144 -92.0135 -91.9659 -91.9559 -26.3487 -20.6168 -20.5864 -20.5828
-20.5633 -11.4123 -11.3906 -11.3362 -11.3223 -11.3074 -11.3010 -11.3005
-11.2903 -11.2902 -11.2825 -11.2813 -11.2782 -11.2716 -11.2708 -11.2697
-11.2697 -11.2552 -11.2531 -11.2471 -11.2307  -9.0141  -9.0130  -8.9685
 -8.9585  -6.6950  -6.6942  -6.6936  -6.6932  -6.6927  -6.6926  -6.6496
 -6.6487  -6.6475  -6.6398  -6.6389  -6.6378  -1.6656  -1.4694  -1.4085
 -1.4058  -1.3722  -1.2459  -1.1989  -1.1716  -1.1424  -1.0998  -1.0523
 -1.0423  -1.0291  -1.0001  -0.9935  -0.9673  -0.9575  -0.9481  -0.9413
 -0.8898  -0.8754  -0.8576  -0.8208  -0.7979  -0.7882  -0.7812  -0.7663
 -0.7602  -0.7337  -0.7302  -0.7157  -0.7028  -0.6922  -0.6870  -0.6790
 -0.6759  -0.6692  -0.6535  -0.6466  -0.6374  -0.6290  -0.6176  -0.6150
 -0.6094  -0.6034  -0.5928  -0.5776  -0.5702  -0.5623  -0.5562  -0.5545
 -0.5494  -0.5328  -0.5267  -0.5179  -0.5143  -0.5098  -0.5053  -0.4980
 -0.4876  -0.4839  -0.4771  -0.4744  -0.4684  -0.4646  -0.4548  -0.4425
 -0.4210  -0.3960  -0.3793  -0.3686  -0.3465  -0.3166  -0.2851  -0.2150

          Ground-State Mulliken Net Atomic Charges

     Atom                 Charge (a.u.)
  ----------------------------------------
      1 C                    -0.068924
      2 C                    -0.277448
      3 S                    -0.141295
      4 C                    -0.038256
      5 H                     0.191302
      6 C                    -0.053306
      7 C                     0.223090
      8 C                     0.214410
      9 C                    -0.067617
     10 C                    -0.066005
     11 O                    -0.336888
     12 O                    -0.344930
     13 C                    -0.082686
     14 H                     0.118763
     15 H                     0.092277
     16 H                     0.092763
     17 C                    -0.086290
     18 H                     0.121663
     19 H                     0.091143
     20 H                     0.090154
     21 C                    -0.255666
     22 S                    -0.110489
     23 C                     0.061244
     24 H                     0.206027
     25 C                    -0.189305
     26 S                     0.104651
     27 C                    -0.128022
     28 C                     0.076288
     29 C                    -0.111689
     30 S                     0.055336
     31 C                    -0.154346
     32 C                     0.400335
     33 F                    -0.202403
     34 C                     0.448817
     35 O                    -0.461689
     36 O                    -0.301305
     37 C                    -0.057985
     38 H                     0.121803
     39 H                     0.095487
     40 H                     0.095639
     41 H                     0.222014
     42 H                     0.115122
     43 H                     0.112601
     44 H                     0.185619
  ----------------------------------------
  Sum of atomic charges =     0.000000

                    Cartesian Multipole Moments
 -----------------------------------------------------------------
    Charge (ESU x 10^10)
                 0.0000
    Dipole Moment (Debye)
         X       4.0815      Y       3.7698      Z       1.9475
       Tot       5.8875
    Quadrupole Moments (Debye-Ang)
        XX    -177.7540     XY      10.7718     YY    -196.2298
        XZ       2.1853     YZ      -3.2024     ZZ    -196.4046

 Total job time:  337.02s(wall), 10830.25s(cpu)
        *  Thank you very much for using Q-Chem.  Have a nice day.  *
