 Q-Chem 5.4, Q-Chem, Inc., Pleasanton, CA (2021)
 Q-Chem 5.4.0 for Intel X86 EM64T Linux

User input:
--------------------------------------------------------------
$molecule
0 1
C	-0.284919	-8.517702	-0.147685
C	0.728574	-7.641575	0.212552
S	-1.745304	-7.638634	-0.661757
C	0.374824	-6.264785	0.083761
H	1.715621	-7.966081	0.565513
C	-0.965104	-6.072714	-0.405665
C	-1.502136	-4.787049	-0.574617
C	1.214687	-5.162801	0.413763
C	0.675870	-3.874817	0.248748
C	-0.664513	-3.683952	-0.243888
O	2.464209	-5.499772	0.838511
O	-2.757750	-4.459055	-1.000176
C	-3.441858	-5.329063	-1.893778
H	-4.303826	-4.755694	-2.284868
H	-3.828743	-6.238095	-1.383341
H	-2.792824	-5.637262	-2.741817
C	3.241222	-4.572261	1.586168
H	4.108274	-5.139743	1.974033
H	2.668916	-4.153131	2.441448
H	3.620041	-3.739531	0.954660
C	-1.015668	-2.306654	-0.369302
S	1.453394	-2.306501	0.517367
C	0.000000	-1.435185	0.000000
H	-2.000559	-1.978138	-0.724300
C	0.000000	0.000000	0.000000
S	0.234628	0.873813	1.507541
C	0.640889	2.392969	0.718873
C	0.234815	0.873434	-1.067872
C	0.592377	2.216811	-0.686410
S	0.174526	0.637422	-2.805516
C	0.622551	2.330840	-3.054530
C	0.803505	3.015647	-1.862551
F	1.144815	4.307994	-1.819088
C	0.740334	2.763108	-4.456084
O	0.548793	2.017428	-5.406510
O	1.082665	4.069544	-4.569225
C	1.215848	4.546407	-5.916207
H	1.494066	5.611729	-5.833064
H	0.261736	4.436296	-6.470168
H	2.000108	3.981294	-6.459293
H	0.878739	3.286099	1.306486
H	-0.588198	-9.143623	0.699838
H	0.014470	-9.149441	-0.992270
H	-0.362373	-1.443175	1.017360
$end

$rem
JOBTYPE		SP
EXCHANGE	HF
CORRELATION	pRIMP2
BASIS		cc-pvtz
METHOD		rimp2
AUX_BASIS	rimp2-cc-pvtz
SOLVENT_METHOD	PCM
PURECART	11111
SYMMETRY	false
MEM_TOTAL	110000
SCF_CONVERGENCE = 6
THRESH=10
GUI = 2
$end

$solvent
dielectric 4.90
$end
--------------------------------------------------------------

             Standard Nuclear Orientation (Angstroms)
    I     Atom           X                Y                Z
 ----------------------------------------------------------------
    1      C      -0.2849190000    -8.5177020000    -0.1476850000
    2      C       0.7285740000    -7.6415750000     0.2125520000
    3      S      -1.7453040000    -7.6386340000    -0.6617570000
    4      C       0.3748240000    -6.2647850000     0.0837610000
    5      H       1.7156210000    -7.9660810000     0.5655130000
    6      C      -0.9651040000    -6.0727140000    -0.4056650000
    7      C      -1.5021360000    -4.7870490000    -0.5746170000
    8      C       1.2146870000    -5.1628010000     0.4137630000
    9      C       0.6758700000    -3.8748170000     0.2487480000
   10      C      -0.6645130000    -3.6839520000    -0.2438880000
   11      O       2.4642090000    -5.4997720000     0.8385110000
   12      O      -2.7577500000    -4.4590550000    -1.0001760000
   13      C      -3.4418580000    -5.3290630000    -1.8937780000
   14      H      -4.3038260000    -4.7556940000    -2.2848680000
   15      H      -3.8287430000    -6.2380950000    -1.3833410000
   16      H      -2.7928240000    -5.6372620000    -2.7418170000
   17      C       3.2412220000    -4.5722610000     1.5861680000
   18      H       4.1082740000    -5.1397430000     1.9740330000
   19      H       2.6689160000    -4.1531310000     2.4414480000
   20      H       3.6200410000    -3.7395310000     0.9546600000
   21      C      -1.0156680000    -2.3066540000    -0.3693020000
   22      S       1.4533940000    -2.3065010000     0.5173670000
   23      C       0.0000000000    -1.4351850000     0.0000000000
   24      H      -2.0005590000    -1.9781380000    -0.7243000000
   25      C       0.0000000000     0.0000000000     0.0000000000
   26      S       0.2346280000     0.8738130000     1.5075410000
   27      C       0.6408890000     2.3929690000     0.7188730000
   28      C       0.2348150000     0.8734340000    -1.0678720000
   29      C       0.5923770000     2.2168110000    -0.6864100000
   30      S       0.1745260000     0.6374220000    -2.8055160000
   31      C       0.6225510000     2.3308400000    -3.0545300000
   32      C       0.8035050000     3.0156470000    -1.8625510000
   33      F       1.1448150000     4.3079940000    -1.8190880000
   34      C       0.7403340000     2.7631080000    -4.4560840000
   35      O       0.5487930000     2.0174280000    -5.4065100000
   36      O       1.0826650000     4.0695440000    -4.5692250000
   37      C       1.2158480000     4.5464070000    -5.9162070000
   38      H       1.4940660000     5.6117290000    -5.8330640000
   39      H       0.2617360000     4.4362960000    -6.4701680000
   40      H       2.0001080000     3.9812940000    -6.4592930000
   41      H       0.8787390000     3.2860990000     1.3064860000
   42      H      -0.5881980000    -9.1436230000     0.6998380000
   43      H       0.0144700000    -9.1494410000    -0.9922700000
   44      H      -0.3623730000    -1.4431750000     1.0173600000
 ----------------------------------------------------------------

   11   -2755.3415510914      7.59e-07  Convergence criterion met
 Total energy in the final basis set =    -2755.3415510914
        RIMP2         total energy =     -2760.4294092710 a.u.

                    Orbital Energies (a.u.)
 --------------------------------------------------------------

 Alpha MOs
 -- Occupied --
-92.0174 -91.9988 -91.9766 -91.9575 -26.3437 -20.6151 -20.5868 -20.5863
-20.5615 -11.4096 -11.3828 -11.3129 -11.3086 -11.3062 -11.2999 -11.2981
-11.2977 -11.2890 -11.2853 -11.2842 -11.2826 -11.2824 -11.2786 -11.2720
-11.2720 -11.2576 -11.2564 -11.2490 -11.2354  -9.0161  -8.9988  -8.9789
 -8.9601  -6.6968  -6.6962  -6.6957  -6.6799  -6.6791  -6.6780  -6.6600
 -6.6591  -6.6578  -6.6414  -6.6404  -6.6394  -1.6608  -1.4675  -1.4098
 -1.4085  -1.3702  -1.2289  -1.2023  -1.1730  -1.1379  -1.0992  -1.0455
 -1.0443  -1.0247  -1.0034  -0.9964  -0.9629  -0.9589  -0.9479  -0.9403
 -0.8929  -0.8687  -0.8662  -0.8134  -0.7989  -0.7885  -0.7843  -0.7672
 -0.7568  -0.7376  -0.7256  -0.7169  -0.6972  -0.6862  -0.6846  -0.6794
 -0.6741  -0.6603  -0.6558  -0.6482  -0.6335  -0.6303  -0.6194  -0.6146
 -0.6115  -0.5993  -0.5915  -0.5757  -0.5716  -0.5641  -0.5581  -0.5532
 -0.5473  -0.5330  -0.5311  -0.5260  -0.5128  -0.5076  -0.5068  -0.5010
 -0.4852  -0.4816  -0.4761  -0.4741  -0.4721  -0.4686  -0.4604  -0.4457
 -0.4237  -0.3991  -0.3848  -0.3696  -0.3507  -0.3016  -0.2886  -0.2199

          Ground-State Mulliken Net Atomic Charges

     Atom                 Charge (a.u.)
  ----------------------------------------
      1 C                    -0.069999
      2 C                    -0.264048
      3 S                    -0.136735
      4 C                    -0.042658
      5 H                     0.192813
      6 C                    -0.052836
      7 C                     0.225854
      8 C                     0.222191
      9 C                    -0.075403
     10 C                    -0.053236
     11 O                    -0.335126
     12 O                    -0.343549
     13 C                    -0.082594
     14 H                     0.120053
     15 H                     0.091717
     16 H                     0.093205
     17 C                    -0.086661
     18 H                     0.122967
     19 H                     0.091486
     20 H                     0.090479
     21 C                    -0.249269
     22 S                    -0.072319
     23 C                     0.053287
     24 H                     0.207046
     25 C                    -0.100436
     26 S                     0.092510
     27 C                    -0.183663
     28 C                     0.037103
     29 C                    -0.109932
     30 S                     0.009465
     31 C                    -0.156710
     32 C                     0.400466
     33 F                    -0.206932
     34 C                     0.443930
     35 O                    -0.460608
     36 O                    -0.300724
     37 C                    -0.058439
     38 H                     0.121360
     39 H                     0.095096
     40 H                     0.095244
     41 H                     0.218936
     42 H                     0.116628
     43 H                     0.114506
     44 H                     0.185532
  ----------------------------------------
  Sum of atomic charges =     0.000000

                    Cartesian Multipole Moments
 -----------------------------------------------------------------
    Charge (ESU x 10^10)
                -0.0000
    Dipole Moment (Debye)
         X       0.6494      Y       3.2710      Z       3.4911
       Tot       4.8279
    Quadrupole Moments (Debye-Ang)
        XX    -189.7568     XY       0.6874     YY    -177.8959
        XZ       7.1490     YZ      -8.3536     ZZ    -198.7264

 Total job time:  363.67s(wall), 11156.07s(cpu)
        *  Thank you very much for using Q-Chem.  Have a nice day.  *
