 Q-Chem 5.4, Q-Chem, Inc., Pleasanton, CA (2021)
 Q-Chem 5.4.0 for Intel X86 EM64T Linux

User input:
--------------------------------------------------------------
$molecule
0 1
C	0.284919	-8.517702	0.147685
C	-0.728574	-7.641575	-0.212552
S	1.745304	-7.638634	0.661757
C	-0.374824	-6.264785	-0.083761
H	-1.715621	-7.966081	-0.565513
C	0.965104	-6.072714	0.405665
C	1.502136	-4.787049	0.574617
C	-1.214687	-5.162801	-0.413763
C	-0.675870	-3.874817	-0.248748
C	0.664513	-3.683952	0.243888
O	-2.464209	-5.499772	-0.838511
O	2.757750	-4.459055	1.000176
C	3.441858	-5.329063	1.893778
H	4.303826	-4.755694	2.284868
H	3.828743	-6.238095	1.383341
H	2.792824	-5.637262	2.741817
C	-3.241222	-4.572261	-1.586168
H	-4.108274	-5.139743	-1.974033
H	-2.668916	-4.153131	-2.441448
H	-3.620041	-3.739531	-0.954660
C	1.015668	-2.306654	0.369302
S	-1.453394	-2.306501	-0.517367
C	0.000000	-1.435185	0.000000
H	2.000559	-1.978138	0.724300
C	0.000000	0.000000	0.000000
S	0.000474	0.904764	1.507541
C	-0.000295	2.477305	0.718873
C	0.000752	0.904447	-1.067872
C	-0.001560	2.294593	-0.686410
S	0.003602	0.660872	-2.805516
C	-0.001928	2.412546	-3.054530
C	-0.004381	3.120854	-1.862551
F	-0.009185	4.457503	-1.819088
C	-0.000038	2.860570	-4.456084
O	0.007944	2.090724	-5.406510
O	-0.007501	4.211092	-4.569225
C	-0.002278	4.706177	-5.916207
H	-0.009265	5.807207	-5.833064
H	-0.895381	4.352875	-6.470168
H	0.901521	4.363301	-6.459293
H	-0.001708	3.401562	1.306486
H	0.588198	-9.143623	-0.699838
H	-0.014470	-9.149441	0.992270
H	0.362373	-1.443175	-1.017360
$end

$rem
JOBTYPE		SP
EXCHANGE	HF
CORRELATION	pRIMP2
BASIS		cc-pvtz
METHOD		rimp2
AUX_BASIS	rimp2-cc-pvtz
SOLVENT_METHOD	PCM
PURECART	11111
SYMMETRY	false
MEM_TOTAL	110000
SCF_CONVERGENCE = 6
THRESH=10
GUI = 2
$end

$solvent
dielectric 4.90
$end
--------------------------------------------------------------

             Standard Nuclear Orientation (Angstroms)
    I     Atom           X                Y                Z
 ----------------------------------------------------------------
    1      C       0.2849190000    -8.5177020000     0.1476850000
    2      C      -0.7285740000    -7.6415750000    -0.2125520000
    3      S       1.7453040000    -7.6386340000     0.6617570000
    4      C      -0.3748240000    -6.2647850000    -0.0837610000
    5      H      -1.7156210000    -7.9660810000    -0.5655130000
    6      C       0.9651040000    -6.0727140000     0.4056650000
    7      C       1.5021360000    -4.7870490000     0.5746170000
    8      C      -1.2146870000    -5.1628010000    -0.4137630000
    9      C      -0.6758700000    -3.8748170000    -0.2487480000
   10      C       0.6645130000    -3.6839520000     0.2438880000
   11      O      -2.4642090000    -5.4997720000    -0.8385110000
   12      O       2.7577500000    -4.4590550000     1.0001760000
   13      C       3.4418580000    -5.3290630000     1.8937780000
   14      H       4.3038260000    -4.7556940000     2.2848680000
   15      H       3.8287430000    -6.2380950000     1.3833410000
   16      H       2.7928240000    -5.6372620000     2.7418170000
   17      C      -3.2412220000    -4.5722610000    -1.5861680000
   18      H      -4.1082740000    -5.1397430000    -1.9740330000
   19      H      -2.6689160000    -4.1531310000    -2.4414480000
   20      H      -3.6200410000    -3.7395310000    -0.9546600000
   21      C       1.0156680000    -2.3066540000     0.3693020000
   22      S      -1.4533940000    -2.3065010000    -0.5173670000
   23      C       0.0000000000    -1.4351850000     0.0000000000
   24      H       2.0005590000    -1.9781380000     0.7243000000
   25      C       0.0000000000     0.0000000000     0.0000000000
   26      S       0.0004740000     0.9047640000     1.5075410000
   27      C      -0.0002950000     2.4773050000     0.7188730000
   28      C       0.0007520000     0.9044470000    -1.0678720000
   29      C      -0.0015600000     2.2945930000    -0.6864100000
   30      S       0.0036020000     0.6608720000    -2.8055160000
   31      C      -0.0019280000     2.4125460000    -3.0545300000
   32      C      -0.0043810000     3.1208540000    -1.8625510000
   33      F      -0.0091850000     4.4575030000    -1.8190880000
   34      C      -0.0000380000     2.8605700000    -4.4560840000
   35      O       0.0079440000     2.0907240000    -5.4065100000
   36      O      -0.0075010000     4.2110920000    -4.5692250000
   37      C      -0.0022780000     4.7061770000    -5.9162070000
   38      H      -0.0092650000     5.8072070000    -5.8330640000
   39      H      -0.8953810000     4.3528750000    -6.4701680000
   40      H       0.9015210000     4.3633010000    -6.4592930000
   41      H      -0.0017080000     3.4015620000     1.3064860000
   42      H       0.5881980000    -9.1436230000    -0.6998380000
   43      H      -0.0144700000    -9.1494410000     0.9922700000
   44      H       0.3623730000    -1.4431750000    -1.0173600000
 ----------------------------------------------------------------

   11   -2755.3485323208      6.97e-07  Convergence criterion met
 Total energy in the final basis set =    -2755.3485323208
        RIMP2         total energy =     -2760.4365586874 a.u.

                    Orbital Energies (a.u.)
 --------------------------------------------------------------

 Alpha MOs
 -- Occupied --
-92.0120 -91.9998 -91.9766 -91.9585 -26.3443 -20.6153 -20.5873 -20.5867
-20.5618 -11.4100 -11.3838 -11.3102 -11.3091 -11.3072 -11.3033 -11.3021
-11.2986 -11.2892 -11.2852 -11.2840 -11.2830 -11.2827 -11.2804 -11.2734
-11.2718 -11.2583 -11.2582 -11.2499 -11.2374  -9.0108  -8.9999  -8.9788
 -8.9611  -6.6916  -6.6910  -6.6905  -6.6809  -6.6802  -6.6791  -6.6599
 -6.6590  -6.6578  -6.6423  -6.6414  -6.6404  -1.6613  -1.4678  -1.4103
 -1.4090  -1.3705  -1.2294  -1.2025  -1.1736  -1.1369  -1.1009  -1.0469
 -1.0452  -1.0235  -1.0037  -0.9970  -0.9631  -0.9580  -0.9486  -0.9414
 -0.8932  -0.8710  -0.8650  -0.8146  -0.7941  -0.7899  -0.7849  -0.7684
 -0.7587  -0.7354  -0.7261  -0.7099  -0.7008  -0.6947  -0.6852  -0.6800
 -0.6743  -0.6649  -0.6554  -0.6485  -0.6346  -0.6308  -0.6202  -0.6150
 -0.6111  -0.5992  -0.5924  -0.5776  -0.5703  -0.5644  -0.5580  -0.5560
 -0.5492  -0.5316  -0.5301  -0.5252  -0.5131  -0.5089  -0.5072  -0.5015
 -0.4859  -0.4801  -0.4771  -0.4744  -0.4724  -0.4668  -0.4604  -0.4461
 -0.4245  -0.3992  -0.3853  -0.3700  -0.3505  -0.3012  -0.2894  -0.2208

          Ground-State Mulliken Net Atomic Charges

     Atom                 Charge (a.u.)
  ----------------------------------------
      1 C                    -0.070369
      2 C                    -0.257822
      3 S                    -0.134699
      4 C                    -0.044827
      5 H                     0.193673
      6 C                    -0.051232
      7 C                     0.225123
      8 C                     0.227385
      9 C                    -0.080002
     10 C                    -0.059651
     11 O                    -0.335246
     12 O                    -0.343568
     13 C                    -0.082717
     14 H                     0.119982
     15 H                     0.092100
     16 H                     0.092698
     17 C                    -0.086915
     18 H                     0.122885
     19 H                     0.093226
     20 H                     0.090171
     21 C                    -0.240872
     22 S                    -0.070672
     23 C                     0.065085
     24 H                     0.206539
     25 C                    -0.078917
     26 S                     0.087952
     27 C                    -0.181438
     28 C                     0.005766
     29 C                    -0.113819
     30 S                     0.001439
     31 C                    -0.157948
     32 C                     0.399079
     33 F                    -0.205975
     34 C                     0.444308
     35 O                    -0.461145
     36 O                    -0.300707
     37 C                    -0.058652
     38 H                     0.121522
     39 H                     0.095229
     40 H                     0.095171
     41 H                     0.217332
     42 H                     0.117669
     43 H                     0.115163
     44 H                     0.187694
  ----------------------------------------
  Sum of atomic charges =     0.000000

                    Cartesian Multipole Moments
 -----------------------------------------------------------------
    Charge (ESU x 10^10)
                -0.0000
    Dipole Moment (Debye)
         X       0.0541      Y       2.7856      Z       2.3706
       Tot       3.6582
    Quadrupole Moments (Debye-Ang)
        XX    -190.7390     XY       3.5312     YY    -173.6863
        XZ       9.1813     YZ      -6.4308     ZZ    -199.1059

 Total job time:  322.43s(wall), 10558.70s(cpu)
        *  Thank you very much for using Q-Chem.  Have a nice day.  *
