 Q-Chem 5.4, Q-Chem, Inc., Pleasanton, CA (2021)
 Q-Chem 5.4.0 for Intel X86 EM64T Linux

User input:
--------------------------------------------------------------
$molecule
0 1
C	-0.014560	-8.517702	-0.320589
C	0.180211	-7.641575	0.737240
S	-0.299553	-7.638634	-1.842356
C	0.114873	-6.264785	0.366488
H	0.368061	-7.966081	1.768528
C	-0.131236	-6.072714	-1.038637
C	-0.253435	-4.787049	-1.588197
C	0.249014	-5.162801	1.258831
C	0.122513	-3.874817	0.709695
C	-0.121043	-3.683952	-0.697430
O	0.505933	-5.499772	2.553323
O	-0.512697	-4.459055	-2.888369
C	-0.080869	-5.329063	-3.927625
H	-0.173159	-4.755694	-4.869656
H	-0.716363	-6.238095	-4.007459
H	0.978072	-5.637262	-3.789565
C	0.246949	-4.572261	3.600064
H	0.344574	-5.139743	4.544887
H	-0.779898	-4.153131	3.532074
H	0.983261	-3.739531	3.612378
C	-0.188009	-2.306654	-1.064246
S	0.278644	-2.306501	1.517360
C	-0.000000	-1.435185	-0.000000
H	-0.373017	-1.978138	-2.094685
C	0.000000	0.000000	0.000000
S	0.382799	0.819795	1.507541
C	1.046687	2.245325	0.718873
C	0.382918	0.819389	-1.067872
C	0.968323	2.080267	-0.686410
S	0.282561	0.597432	-2.805516
C	1.017839	2.187324	-3.054530
C	1.314960	2.830306	-1.862551
F	1.875498	4.043751	-1.819088
C	1.208895	2.592573	-4.456084
O	0.890778	1.891482	-5.406510
O	1.772886	3.819715	-4.569225
C	1.986852	4.266207	-5.916207
H	2.445834	5.267032	-5.833064
H	1.028114	4.323448	-6.470168
H	2.661066	3.573494	-6.459293
H	1.436015	3.083584	1.306486
H	-0.900177	-9.143623	-0.159475
H	0.866566	-9.149441	-0.483604
H	-1.062246	-1.443175	0.194856
$end

$rem
JOBTYPE		SP
EXCHANGE	HF
CORRELATION	pRIMP2
BASIS		cc-pvtz
METHOD		rimp2
AUX_BASIS	rimp2-cc-pvtz
SOLVENT_METHOD	PCM
PURECART	11111
SYMMETRY	false
MEM_TOTAL	110000
SCF_CONVERGENCE = 6
THRESH=10
GUI = 2
$end

$solvent
dielectric 4.90
$end
--------------------------------------------------------------

             Standard Nuclear Orientation (Angstroms)
    I     Atom           X                Y                Z
 ----------------------------------------------------------------
    1      C      -0.0145600000    -8.5177020000    -0.3205890000
    2      C       0.1802110000    -7.6415750000     0.7372400000
    3      S      -0.2995530000    -7.6386340000    -1.8423560000
    4      C       0.1148730000    -6.2647850000     0.3664880000
    5      H       0.3680610000    -7.9660810000     1.7685280000
    6      C      -0.1312360000    -6.0727140000    -1.0386370000
    7      C      -0.2534350000    -4.7870490000    -1.5881970000
    8      C       0.2490140000    -5.1628010000     1.2588310000
    9      C       0.1225130000    -3.8748170000     0.7096950000
   10      C      -0.1210430000    -3.6839520000    -0.6974300000
   11      O       0.5059330000    -5.4997720000     2.5533230000
   12      O      -0.5126970000    -4.4590550000    -2.8883690000
   13      C      -0.0808690000    -5.3290630000    -3.9276250000
   14      H      -0.1731590000    -4.7556940000    -4.8696560000
   15      H      -0.7163630000    -6.2380950000    -4.0074590000
   16      H       0.9780720000    -5.6372620000    -3.7895650000
   17      C       0.2469490000    -4.5722610000     3.6000640000
   18      H       0.3445740000    -5.1397430000     4.5448870000
   19      H      -0.7798980000    -4.1531310000     3.5320740000
   20      H       0.9832610000    -3.7395310000     3.6123780000
   21      C      -0.1880090000    -2.3066540000    -1.0642460000
   22      S       0.2786440000    -2.3065010000     1.5173600000
   23      C       0.0000000000    -1.4351850000     0.0000000000
   24      H      -0.3730170000    -1.9781380000    -2.0946850000
   25      C       0.0000000000     0.0000000000     0.0000000000
   26      S       0.3827990000     0.8197950000     1.5075410000
   27      C       1.0466870000     2.2453250000     0.7188730000
   28      C       0.3829180000     0.8193890000    -1.0678720000
   29      C       0.9683230000     2.0802670000    -0.6864100000
   30      S       0.2825610000     0.5974320000    -2.8055160000
   31      C       1.0178390000     2.1873240000    -3.0545300000
   32      C       1.3149600000     2.8303060000    -1.8625510000
   33      F       1.8754980000     4.0437510000    -1.8190880000
   34      C       1.2088950000     2.5925730000    -4.4560840000
   35      O       0.8907780000     1.8914820000    -5.4065100000
   36      O       1.7728860000     3.8197150000    -4.5692250000
   37      C       1.9868520000     4.2662070000    -5.9162070000
   38      H       2.4458340000     5.2670320000    -5.8330640000
   39      H       1.0281140000     4.3234480000    -6.4701680000
   40      H       2.6610660000     3.5734940000    -6.4592930000
   41      H       1.4360150000     3.0835840000     1.3064860000
   42      H      -0.9001770000    -9.1436230000    -0.1594750000
   43      H       0.8665660000    -9.1494410000    -0.4836040000
   44      H      -1.0622460000    -1.4431750000     0.1948560000
 ----------------------------------------------------------------

   11   -2755.3266111681      8.88e-07  Convergence criterion met
 Total energy in the final basis set =    -2755.3266111681
        RIMP2         total energy =     -2760.4214032325 a.u.

                    Orbital Energies (a.u.)
 --------------------------------------------------------------

 Alpha MOs
 -- Occupied --
-92.0147 -91.9982 -91.9822 -91.9582 -26.3433 -20.6151 -20.5883 -20.5871
-20.5617 -11.4098 -11.3824 -11.3095 -11.3094 -11.3058 -11.3045 -11.2983
-11.2959 -11.2890 -11.2856 -11.2851 -11.2848 -11.2823 -11.2811 -11.2748
-11.2729 -11.2587 -11.2587 -11.2499 -11.2374  -9.0136  -8.9985  -8.9844
 -8.9608  -6.6944  -6.6938  -6.6932  -6.6795  -6.6787  -6.6776  -6.6655
 -6.6646  -6.6633  -6.6420  -6.6411  -6.6401  -1.6604  -1.4676  -1.4116
 -1.4090  -1.3703  -1.2309  -1.2030  -1.1743  -1.1380  -1.1006  -1.0475
 -1.0453  -1.0243  -1.0043  -0.9984  -0.9634  -0.9594  -0.9490  -0.9407
 -0.8951  -0.8701  -0.8651  -0.8103  -0.8014  -0.7902  -0.7839  -0.7679
 -0.7569  -0.7378  -0.7252  -0.7134  -0.6988  -0.6904  -0.6849  -0.6811
 -0.6741  -0.6624  -0.6571  -0.6490  -0.6390  -0.6314  -0.6202  -0.6150
 -0.6121  -0.5990  -0.5932  -0.5771  -0.5709  -0.5652  -0.5595  -0.5549
 -0.5452  -0.5354  -0.5305  -0.5297  -0.5142  -0.5095  -0.5083  -0.5008
 -0.4853  -0.4821  -0.4771  -0.4741  -0.4709  -0.4669  -0.4590  -0.4469
 -0.4332  -0.3938  -0.3869  -0.3710  -0.3504  -0.2996  -0.2886  -0.2163

          Ground-State Mulliken Net Atomic Charges

     Atom                 Charge (a.u.)
  ----------------------------------------
      1 C                    -0.070237
      2 C                    -0.259788
      3 S                    -0.135375
      4 C                    -0.046882
      5 H                     0.193463
      6 C                    -0.052200
      7 C                     0.227188
      8 C                     0.227347
      9 C                    -0.073686
     10 C                    -0.047862
     11 O                    -0.333870
     12 O                    -0.344593
     13 C                    -0.083280
     14 H                     0.121288
     15 H                     0.092545
     16 H                     0.092950
     17 C                    -0.088983
     18 H                     0.124733
     19 H                     0.092869
     20 H                     0.089918
     21 C                    -0.272165
     22 S                    -0.094120
     23 C                     0.091946
     24 H                     0.200014
     25 C                    -0.048562
     26 S                     0.077503
     27 C                    -0.203090
     28 C                     0.005580
     29 C                    -0.110249
     30 S                    -0.002311
     31 C                    -0.164228
     32 C                     0.408219
     33 F                    -0.206637
     34 C                     0.445680
     35 O                    -0.460835
     36 O                    -0.300894
     37 C                    -0.058563
     38 H                     0.121553
     39 H                     0.095150
     40 H                     0.095215
     41 H                     0.218500
     42 H                     0.117457
     43 H                     0.115194
     44 H                     0.204098
  ----------------------------------------
  Sum of atomic charges =     0.000000

                    Cartesian Multipole Moments
 -----------------------------------------------------------------
    Charge (ESU x 10^10)
                -0.0000
    Dipole Moment (Debye)
         X       0.5035      Y       2.1682      Z       3.3178
       Tot       3.9953
    Quadrupole Moments (Debye-Ang)
        XX    -198.6588     XY       5.3330     YY    -176.5681
        XZ      -6.0112     YZ     -11.0141     ZZ    -187.9798

 Total job time:  329.07s(wall), 10812.38s(cpu)
        *  Thank you very much for using Q-Chem.  Have a nice day.  *
