 Q-Chem 5.4, Q-Chem, Inc., Pleasanton, CA (2021)
 Q-Chem 5.4.0 for Intel X86 EM64T Linux

User input:
--------------------------------------------------------------
$molecule
0 1
C	0.041330	-8.517702	-0.318247
C	0.049453	-7.641575	0.757333
S	0.024919	-7.638634	-1.866383
C	0.049488	-6.264785	0.380867
H	0.055368	-7.966081	1.805573
C	0.051115	-6.072714	-1.045647
C	0.026203	-4.787049	-1.608077
C	0.026637	-5.162801	1.282948
C	-0.002586	-3.874817	0.720187
C	0.001903	-3.683952	-0.707853
O	0.054867	-5.499772	2.602386
O	-0.003348	-4.459055	-2.933517
C	0.602384	-5.329063	-3.881999
H	0.675079	-4.755694	-4.825744
H	-0.009592	-6.238095	-4.070972
H	1.621263	-5.637262	-3.562152
C	-0.381947	-4.572261	3.588253
H	-0.449872	-5.139743	4.535674
H	-1.381388	-4.153131	3.342986
H	0.341040	-3.739531	3.728239
C	-0.000348	-2.306654	-1.080725
S	0.010924	-2.306501	1.542694
C	-0.000000	-1.435185	-0.000000
H	-0.003612	-1.978138	-2.127635
C	0.000000	0.000000	0.000000
S	0.382799	0.819795	1.507541
C	1.046687	2.245325	0.718873
C	0.382918	0.819389	-1.067872
C	0.968323	2.080267	-0.686410
S	0.282561	0.597432	-2.805516
C	1.017839	2.187324	-3.054530
C	1.314960	2.830306	-1.862551
F	1.875498	4.043751	-1.819088
C	1.208895	2.592573	-4.456084
O	0.890778	1.891482	-5.406510
O	1.772886	3.819715	-4.569225
C	1.986852	4.266207	-5.916207
H	2.445834	5.267032	-5.833064
H	1.028114	4.323448	-6.470168
H	2.661066	3.573494	-6.459293
H	1.436015	3.083584	1.306486
H	-0.858809	-9.143623	-0.313367
H	0.937378	-9.149441	-0.325780
H	-1.079945	-1.443175	0.007439
$end

$rem
JOBTYPE		SP
EXCHANGE	HF
CORRELATION	pRIMP2
BASIS		cc-pvtz
METHOD		rimp2
AUX_BASIS	rimp2-cc-pvtz
SOLVENT_METHOD	PCM
PURECART	11111
SYMMETRY	false
MEM_TOTAL	110000
SCF_CONVERGENCE = 6
THRESH=10
GUI = 2
$end

$solvent
dielectric 4.90
$end
--------------------------------------------------------------

             Standard Nuclear Orientation (Angstroms)
    I     Atom           X                Y                Z
 ----------------------------------------------------------------
    1      C       0.0413300000    -8.5177020000    -0.3182470000
    2      C       0.0494530000    -7.6415750000     0.7573330000
    3      S       0.0249190000    -7.6386340000    -1.8663830000
    4      C       0.0494880000    -6.2647850000     0.3808670000
    5      H       0.0553680000    -7.9660810000     1.8055730000
    6      C       0.0511150000    -6.0727140000    -1.0456470000
    7      C       0.0262030000    -4.7870490000    -1.6080770000
    8      C       0.0266370000    -5.1628010000     1.2829480000
    9      C      -0.0025860000    -3.8748170000     0.7201870000
   10      C       0.0019030000    -3.6839520000    -0.7078530000
   11      O       0.0548670000    -5.4997720000     2.6023860000
   12      O      -0.0033480000    -4.4590550000    -2.9335170000
   13      C       0.6023840000    -5.3290630000    -3.8819990000
   14      H       0.6750790000    -4.7556940000    -4.8257440000
   15      H      -0.0095920000    -6.2380950000    -4.0709720000
   16      H       1.6212630000    -5.6372620000    -3.5621520000
   17      C      -0.3819470000    -4.5722610000     3.5882530000
   18      H      -0.4498720000    -5.1397430000     4.5356740000
   19      H      -1.3813880000    -4.1531310000     3.3429860000
   20      H       0.3410400000    -3.7395310000     3.7282390000
   21      C      -0.0003480000    -2.3066540000    -1.0807250000
   22      S       0.0109240000    -2.3065010000     1.5426940000
   23      C       0.0000000000    -1.4351850000     0.0000000000
   24      H      -0.0036120000    -1.9781380000    -2.1276350000
   25      C       0.0000000000     0.0000000000     0.0000000000
   26      S       0.3827990000     0.8197950000     1.5075410000
   27      C       1.0466870000     2.2453250000     0.7188730000
   28      C       0.3829180000     0.8193890000    -1.0678720000
   29      C       0.9683230000     2.0802670000    -0.6864100000
   30      S       0.2825610000     0.5974320000    -2.8055160000
   31      C       1.0178390000     2.1873240000    -3.0545300000
   32      C       1.3149600000     2.8303060000    -1.8625510000
   33      F       1.8754980000     4.0437510000    -1.8190880000
   34      C       1.2088950000     2.5925730000    -4.4560840000
   35      O       0.8907780000     1.8914820000    -5.4065100000
   36      O       1.7728860000     3.8197150000    -4.5692250000
   37      C       1.9868520000     4.2662070000    -5.9162070000
   38      H       2.4458340000     5.2670320000    -5.8330640000
   39      H       1.0281140000     4.3234480000    -6.4701680000
   40      H       2.6610660000     3.5734940000    -6.4592930000
   41      H       1.4360150000     3.0835840000     1.3064860000
   42      H      -0.8588090000    -9.1436230000    -0.3133670000
   43      H       0.9373780000    -9.1494410000    -0.3257800000
   44      H      -1.0799450000    -1.4431750000     0.0074390000
 ----------------------------------------------------------------

   11   -2755.3262448960      8.76e-07  Convergence criterion met
 Total energy in the final basis set =    -2755.3262448960
        RIMP2         total energy =     -2760.4215472104 a.u.

                    Orbital Energies (a.u.)
 --------------------------------------------------------------

 Alpha MOs
 -- Occupied --
-92.0143 -91.9983 -91.9824 -91.9584 -26.3433 -20.6151 -20.5885 -20.5872
-20.5617 -11.4098 -11.3824 -11.3098 -11.3096 -11.3052 -11.3049 -11.2983
-11.2957 -11.2890 -11.2858 -11.2852 -11.2851 -11.2823 -11.2815 -11.2745
-11.2730 -11.2590 -11.2589 -11.2501 -11.2379  -9.0132  -8.9986  -8.9846
 -8.9610  -6.6940  -6.6934  -6.6928  -6.6796  -6.6789  -6.6777  -6.6657
 -6.6648  -6.6635  -6.6422  -6.6413  -6.6403  -1.6604  -1.4676  -1.4118
 -1.4090  -1.3703  -1.2310  -1.2031  -1.1744  -1.1379  -1.1008  -1.0477
 -1.0455  -1.0242  -1.0042  -0.9987  -0.9634  -0.9595  -0.9492  -0.9409
 -0.8952  -0.8704  -0.8648  -0.8099  -0.8015  -0.7904  -0.7839  -0.7680
 -0.7570  -0.7377  -0.7252  -0.7125  -0.6990  -0.6916  -0.6849  -0.6813
 -0.6741  -0.6629  -0.6572  -0.6491  -0.6393  -0.6315  -0.6204  -0.6151
 -0.6121  -0.5989  -0.5935  -0.5774  -0.5709  -0.5655  -0.5597  -0.5552
 -0.5447  -0.5357  -0.5307  -0.5292  -0.5140  -0.5097  -0.5084  -0.5010
 -0.4852  -0.4822  -0.4773  -0.4739  -0.4706  -0.4661  -0.4596  -0.4472
 -0.4335  -0.3938  -0.3868  -0.3712  -0.3502  -0.2995  -0.2887  -0.2164

          Ground-State Mulliken Net Atomic Charges

     Atom                 Charge (a.u.)
  ----------------------------------------
      1 C                    -0.070169
      2 C                    -0.258620
      3 S                    -0.135183
      4 C                    -0.048309
      5 H                     0.193693
      6 C                    -0.051707
      7 C                     0.227800
      8 C                     0.230601
      9 C                    -0.073605
     10 C                    -0.045038
     11 O                    -0.333633
     12 O                    -0.344526
     13 C                    -0.083369
     14 H                     0.121385
     15 H                     0.092537
     16 H                     0.092892
     17 C                    -0.089069
     18 H                     0.124970
     19 H                     0.092975
     20 H                     0.089945
     21 C                    -0.283072
     22 S                    -0.097967
     23 C                     0.102005
     24 H                     0.197954
     25 C                    -0.031827
     26 S                     0.083669
     27 C                    -0.213033
     28 C                    -0.018365
     29 C                    -0.102315
     30 S                    -0.000765
     31 C                    -0.165138
     32 C                     0.410130
     33 F                    -0.206599
     34 C                     0.445121
     35 O                    -0.460943
     36 O                    -0.300849
     37 C                    -0.058558
     38 H                     0.121569
     39 H                     0.095162
     40 H                     0.095189
     41 H                     0.217935
     42 H                     0.117553
     43 H                     0.115287
     44 H                     0.204284
  ----------------------------------------
  Sum of atomic charges =     0.000000

                    Cartesian Multipole Moments
 -----------------------------------------------------------------
    Charge (ESU x 10^10)
                -0.0000
    Dipole Moment (Debye)
         X       0.4331      Y       2.0242      Z       3.2203
       Tot       3.8282
    Quadrupole Moments (Debye-Ang)
        XX    -197.1674     XY       6.0050     YY    -175.9690
        XZ      -8.9293     YZ     -11.1658     ZZ    -189.5172

 Total job time:  329.53s(wall), 10862.27s(cpu)
        *  Thank you very much for using Q-Chem.  Have a nice day.  *
