 Q-Chem 5.4, Q-Chem, Inc., Pleasanton, CA (2021)
 Q-Chem 5.4.0 for Intel X86 EM64T Linux

User input:
--------------------------------------------------------------
$molecule
0 1
C	-0.306235	-8.517702	-0.095966
C	0.754415	-7.641575	0.082807
S	-1.833702	-7.638634	-0.348635
C	0.383675	-6.264785	0.017401
H	1.787757	-7.966081	0.259008
C	-1.020885	-6.072714	-0.231913
C	-1.579097	-4.787049	-0.305044
C	1.268082	-5.162801	0.196549
C	0.708796	-3.874817	0.127606
C	-0.696769	-3.683952	-0.124792
O	2.572378	-5.499772	0.397867
O	-2.889532	-4.459055	-0.506103
C	-3.718420	-5.329063	-1.267335
H	-4.635204	-4.755694	-1.502804
H	-4.010790	-6.238095	-0.697471
H	-3.226506	-5.637262	-2.215194
C	3.467415	-4.572261	0.999238
H	4.388648	-5.139743	1.230649
H	3.052323	-4.153131	1.940905
H	3.730819	-3.739531	0.311543
C	-1.064366	-2.306654	-0.187323
S	1.521154	-2.306501	0.257128
C	0.000000	-1.435185	0.000000
H	-2.095939	-1.978138	-0.365903
C	0.000000	0.000000	0.000000
S	0.000474	0.904764	1.507541
C	-0.000295	2.477305	0.718873
C	0.000752	0.904447	-1.067872
C	-0.001560	2.294593	-0.686410
S	0.003602	0.660872	-2.805516
C	-0.001928	2.412546	-3.054530
C	-0.004381	3.120854	-1.862551
F	-0.009185	4.457503	-1.819088
C	-0.000038	2.860570	-4.456084
O	0.007944	2.090724	-5.406510
O	-0.007501	4.211092	-4.569225
C	-0.002278	4.706177	-5.916207
H	-0.009265	5.807207	-5.833064
H	-0.895381	4.352875	-6.470168
H	0.901521	4.363301	-6.459293
H	-0.001708	3.401562	1.306486
H	-0.457736	-9.143623	0.791346
H	-0.158056	-9.149441	-0.979708
H	-0.180205	-1.443175	1.064830
$end

$rem
JOBTYPE		SP
EXCHANGE	HF
CORRELATION	pRIMP2
BASIS		cc-pvtz
METHOD		rimp2
AUX_BASIS	rimp2-cc-pvtz
SOLVENT_METHOD	PCM
PURECART	11111
SYMMETRY	false
MEM_TOTAL	110000
SCF_CONVERGENCE = 6
THRESH=10
GUI = 2
$end

$solvent
dielectric 4.90
$end
--------------------------------------------------------------

             Standard Nuclear Orientation (Angstroms)
    I     Atom           X                Y                Z
 ----------------------------------------------------------------
    1      C      -0.3062350000    -8.5177020000    -0.0959660000
    2      C       0.7544150000    -7.6415750000     0.0828070000
    3      S      -1.8337020000    -7.6386340000    -0.3486350000
    4      C       0.3836750000    -6.2647850000     0.0174010000
    5      H       1.7877570000    -7.9660810000     0.2590080000
    6      C      -1.0208850000    -6.0727140000    -0.2319130000
    7      C      -1.5790970000    -4.7870490000    -0.3050440000
    8      C       1.2680820000    -5.1628010000     0.1965490000
    9      C       0.7087960000    -3.8748170000     0.1276060000
   10      C      -0.6967690000    -3.6839520000    -0.1247920000
   11      O       2.5723780000    -5.4997720000     0.3978670000
   12      O      -2.8895320000    -4.4590550000    -0.5061030000
   13      C      -3.7184200000    -5.3290630000    -1.2673350000
   14      H      -4.6352040000    -4.7556940000    -1.5028040000
   15      H      -4.0107900000    -6.2380950000    -0.6974710000
   16      H      -3.2265060000    -5.6372620000    -2.2151940000
   17      C       3.4674150000    -4.5722610000     0.9992380000
   18      H       4.3886480000    -5.1397430000     1.2306490000
   19      H       3.0523230000    -4.1531310000     1.9409050000
   20      H       3.7308190000    -3.7395310000     0.3115430000
   21      C      -1.0643660000    -2.3066540000    -0.1873230000
   22      S       1.5211540000    -2.3065010000     0.2571280000
   23      C       0.0000000000    -1.4351850000     0.0000000000
   24      H      -2.0959390000    -1.9781380000    -0.3659030000
   25      C       0.0000000000     0.0000000000     0.0000000000
   26      S       0.0004740000     0.9047640000     1.5075410000
   27      C      -0.0002950000     2.4773050000     0.7188730000
   28      C       0.0007520000     0.9044470000    -1.0678720000
   29      C      -0.0015600000     2.2945930000    -0.6864100000
   30      S       0.0036020000     0.6608720000    -2.8055160000
   31      C      -0.0019280000     2.4125460000    -3.0545300000
   32      C      -0.0043810000     3.1208540000    -1.8625510000
   33      F      -0.0091850000     4.4575030000    -1.8190880000
   34      C      -0.0000380000     2.8605700000    -4.4560840000
   35      O       0.0079440000     2.0907240000    -5.4065100000
   36      O      -0.0075010000     4.2110920000    -4.5692250000
   37      C      -0.0022780000     4.7061770000    -5.9162070000
   38      H      -0.0092650000     5.8072070000    -5.8330640000
   39      H      -0.8953810000     4.3528750000    -6.4701680000
   40      H       0.9015210000     4.3633010000    -6.4592930000
   41      H      -0.0017080000     3.4015620000     1.3064860000
   42      H      -0.4577360000    -9.1436230000     0.7913460000
   43      H      -0.1580560000    -9.1494410000    -0.9797080000
   44      H      -0.1802050000    -1.4431750000     1.0648300000
 ----------------------------------------------------------------

   11   -2755.3453729629      7.50e-07  Convergence criterion met
 Total energy in the final basis set =    -2755.3453729629
        RIMP2         total energy =     -2760.4319943594 a.u.

                    Orbital Energies (a.u.)
 --------------------------------------------------------------

 Alpha MOs
 -- Occupied --
-92.0178 -91.9981 -91.9763 -91.9578 -26.3435 -20.6150 -20.5869 -20.5864
-20.5615 -11.4096 -11.3826 -11.3116 -11.3087 -11.3063 -11.2999 -11.2986
-11.2980 -11.2890 -11.2851 -11.2842 -11.2825 -11.2825 -11.2791 -11.2724
-11.2721 -11.2578 -11.2570 -11.2492 -11.2359  -9.0164  -8.9982  -8.9785
 -8.9604  -6.6971  -6.6966  -6.6960  -6.6792  -6.6785  -6.6774  -6.6596
 -6.6587  -6.6574  -6.6416  -6.6407  -6.6397  -1.6606  -1.4674  -1.4099
 -1.4086  -1.3701  -1.2283  -1.2024  -1.1732  -1.1376  -1.0994  -1.0455
 -1.0442  -1.0246  -1.0033  -0.9966  -0.9628  -0.9586  -0.9480  -0.9405
 -0.8928  -0.8686  -0.8665  -0.8136  -0.7988  -0.7887  -0.7844  -0.7674
 -0.7567  -0.7376  -0.7255  -0.7170  -0.6972  -0.6860  -0.6846  -0.6794
 -0.6740  -0.6603  -0.6558  -0.6483  -0.6334  -0.6301  -0.6196  -0.6148
 -0.6111  -0.5991  -0.5915  -0.5768  -0.5714  -0.5644  -0.5583  -0.5538
 -0.5492  -0.5320  -0.5308  -0.5252  -0.5128  -0.5075  -0.5068  -0.5012
 -0.4855  -0.4816  -0.4768  -0.4740  -0.4714  -0.4676  -0.4607  -0.4460
 -0.4228  -0.3999  -0.3846  -0.3698  -0.3508  -0.3014  -0.2889  -0.2205

          Ground-State Mulliken Net Atomic Charges

     Atom                 Charge (a.u.)
  ----------------------------------------
      1 C                    -0.070148
      2 C                    -0.261957
      3 S                    -0.136171
      4 C                    -0.043389
      5 H                     0.193098
      6 C                    -0.052777
      7 C                     0.227146
      8 C                     0.224505
      9 C                    -0.080876
     10 C                    -0.064803
     11 O                    -0.335220
     12 O                    -0.343532
     13 C                    -0.082540
     14 H                     0.120004
     15 H                     0.091740
     16 H                     0.093153
     17 C                    -0.086167
     18 H                     0.122841
     19 H                     0.091432
     20 H                     0.090615
     21 C                    -0.232820
     22 S                    -0.074394
     23 C                     0.073446
     24 H                     0.206153
     25 C                    -0.117559
     26 S                     0.093332
     27 C                    -0.187997
     28 C                     0.045291
     29 C                    -0.117235
     30 S                     0.008517
     31 C                    -0.158094
     32 C                     0.401960
     33 F                    -0.207202
     34 C                     0.444106
     35 O                    -0.460632
     36 O                    -0.300550
     37 C                    -0.058638
     38 H                     0.121371
     39 H                     0.095136
     40 H                     0.095218
     41 H                     0.219279
     42 H                     0.116878
     43 H                     0.114804
     44 H                     0.182677
  ----------------------------------------
  Sum of atomic charges =     0.000000

                    Cartesian Multipole Moments
 -----------------------------------------------------------------
    Charge (ESU x 10^10)
                 0.0000
    Dipole Moment (Debye)
         X      -0.0249      Y       3.2011      Z       3.5192
       Tot       4.7574
    Quadrupole Moments (Debye-Ang)
        XX    -187.8928     XY      -3.5390     YY    -176.0535
        XZ       7.8823     YZ      -7.9683     ZZ    -201.8181

 Total job time:  330.70s(wall), 10840.38s(cpu)
        *  Thank you very much for using Q-Chem.  Have a nice day.  *
