 Q-Chem 5.4, Q-Chem, Inc., Pleasanton, CA (2021)
 Q-Chem 5.4.0 for Intel X86 EM64T Linux

User input:
--------------------------------------------------------------
$molecule
0 1
C	-0.194917	-8.517702	0.254945
C	0.335839	-7.641575	-0.680596
S	-0.954772	-7.638634	1.603876
C	0.147576	-6.264785	-0.354585
H	0.854836	-7.966081	-1.591356
C	-0.567090	-6.072714	0.879999
C	-0.826731	-4.787049	1.379534
C	0.618405	-5.162801	-1.124384
C	0.362333	-3.874817	-0.622407
C	-0.355575	-3.683952	0.612067
O	1.253677	-5.499772	-2.281166
O	-1.463859	-4.459055	2.542174
C	-2.462679	-5.329063	3.060718
H	-2.997507	-4.755694	3.841678
H	-2.027179	-6.238095	3.530361
H	-3.185132	-5.637262	2.274283
C	2.124902	-4.572261	-2.916545
H	2.657438	-5.139743	-3.703073
H	2.867810	-4.153131	-2.204417
H	1.568770	-3.739531	-3.399269
C	-0.540061	-2.306654	0.936109
S	0.761887	-2.306501	-1.341474
C	0.000000	-1.435185	0.000000
H	-1.060690	-1.978138	1.844392
C	0.000000	0.000000	0.000000
S	0.452792	0.783312	1.507541
C	1.238397	2.145556	0.718873
C	0.452875	0.782898	-1.067872
C	1.145945	1.987956	-0.686410
S	0.333556	0.570531	-2.805516
C	1.204604	2.090290	-3.054530
C	1.556633	2.704929	-1.862551
F	2.220797	3.864903	-1.819088
C	1.430252	2.477345	-4.456084
O	1.052242	1.806648	-5.406510
O	2.099050	3.650663	-4.569225
C	2.351116	4.076808	-5.916207
H	2.895579	5.033821	-5.833064
H	1.401015	4.217390	-6.470168
H	2.962391	3.327969	-6.459293
H	1.699302	2.946693	1.306486
H	0.587067	-9.143623	0.700788
H	-0.974683	-9.149441	-0.186556
H	0.938979	-1.443175	0.533530
$end

$rem
JOBTYPE		SP
EXCHANGE	HF
CORRELATION	pRIMP2
BASIS		cc-pvtz
METHOD		rimp2
AUX_BASIS	rimp2-cc-pvtz
SOLVENT_METHOD	PCM
PURECART	11111
SYMMETRY	false
MEM_TOTAL	110000
SCF_CONVERGENCE = 6
THRESH=10
GUI = 2
$end

$solvent
dielectric 4.90
$end
--------------------------------------------------------------

             Standard Nuclear Orientation (Angstroms)
    I     Atom           X                Y                Z
 ----------------------------------------------------------------
    1      C      -0.1949170000    -8.5177020000     0.2549450000
    2      C       0.3358390000    -7.6415750000    -0.6805960000
    3      S      -0.9547720000    -7.6386340000     1.6038760000
    4      C       0.1475760000    -6.2647850000    -0.3545850000
    5      H       0.8548360000    -7.9660810000    -1.5913560000
    6      C      -0.5670900000    -6.0727140000     0.8799990000
    7      C      -0.8267310000    -4.7870490000     1.3795340000
    8      C       0.6184050000    -5.1628010000    -1.1243840000
    9      C       0.3623330000    -3.8748170000    -0.6224070000
   10      C      -0.3555750000    -3.6839520000     0.6120670000
   11      O       1.2536770000    -5.4997720000    -2.2811660000
   12      O      -1.4638590000    -4.4590550000     2.5421740000
   13      C      -2.4626790000    -5.3290630000     3.0607180000
   14      H      -2.9975070000    -4.7556940000     3.8416780000
   15      H      -2.0271790000    -6.2380950000     3.5303610000
   16      H      -3.1851320000    -5.6372620000     2.2742830000
   17      C       2.1249020000    -4.5722610000    -2.9165450000
   18      H       2.6574380000    -5.1397430000    -3.7030730000
   19      H       2.8678100000    -4.1531310000    -2.2044170000
   20      H       1.5687700000    -3.7395310000    -3.3992690000
   21      C      -0.5400610000    -2.3066540000     0.9361090000
   22      S       0.7618870000    -2.3065010000    -1.3414740000
   23      C       0.0000000000    -1.4351850000     0.0000000000
   24      H      -1.0606900000    -1.9781380000     1.8443920000
   25      C       0.0000000000     0.0000000000     0.0000000000
   26      S       0.4527920000     0.7833120000     1.5075410000
   27      C       1.2383970000     2.1455560000     0.7188730000
   28      C       0.4528750000     0.7828980000    -1.0678720000
   29      C       1.1459450000     1.9879560000    -0.6864100000
   30      S       0.3335560000     0.5705310000    -2.8055160000
   31      C       1.2046040000     2.0902900000    -3.0545300000
   32      C       1.5566330000     2.7049290000    -1.8625510000
   33      F       2.2207970000     3.8649030000    -1.8190880000
   34      C       1.4302520000     2.4773450000    -4.4560840000
   35      O       1.0522420000     1.8066480000    -5.4065100000
   36      O       2.0990500000     3.6506630000    -4.5692250000
   37      C       2.3511160000     4.0768080000    -5.9162070000
   38      H       2.8955790000     5.0338210000    -5.8330640000
   39      H       1.4010150000     4.2173900000    -6.4701680000
   40      H       2.9623910000     3.3279690000    -6.4592930000
   41      H       1.6993020000     2.9466930000     1.3064860000
   42      H       0.5870670000    -9.1436230000     0.7007880000
   43      H      -0.9746830000    -9.1494410000    -0.1865560000
   44      H       0.9389790000    -1.4431750000     0.5335300000
 ----------------------------------------------------------------

   11   -2755.3274544312      8.20e-07  Convergence criterion met
 Total energy in the final basis set =    -2755.3274544312
        RIMP2         total energy =     -2760.4215663207 a.u.

                    Orbital Energies (a.u.)
 --------------------------------------------------------------

 Alpha MOs
 -- Occupied --
-92.0110 -91.9959 -91.9780 -91.9590 -26.3428 -20.6148 -20.5875 -20.5875
-20.5614 -11.4093 -11.3816 -11.3094 -11.3092 -11.3089 -11.3035 -11.2973
-11.2967 -11.2888 -11.2849 -11.2841 -11.2832 -11.2825 -11.2808 -11.2739
-11.2700 -11.2589 -11.2588 -11.2505 -11.2390  -9.0105  -8.9962  -8.9803
 -8.9616  -6.6913  -6.6907  -6.6901  -6.6772  -6.6764  -6.6753  -6.6613
 -6.6605  -6.6591  -6.6428  -6.6419  -6.6408  -1.6599  -1.4672  -1.4109
 -1.4093  -1.3699  -1.2325  -1.2015  -1.1746  -1.1383  -1.0998  -1.0479
 -1.0441  -1.0252  -1.0035  -0.9965  -0.9639  -0.9567  -0.9492  -0.9416
 -0.8939  -0.8684  -0.8642  -0.8158  -0.7930  -0.7896  -0.7840  -0.7691
 -0.7563  -0.7376  -0.7248  -0.7142  -0.6966  -0.6901  -0.6846  -0.6809
 -0.6738  -0.6635  -0.6560  -0.6488  -0.6372  -0.6304  -0.6208  -0.6155
 -0.6110  -0.5996  -0.5929  -0.5771  -0.5708  -0.5648  -0.5596  -0.5580
 -0.5467  -0.5334  -0.5310  -0.5253  -0.5137  -0.5114  -0.5077  -0.5014
 -0.4843  -0.4799  -0.4764  -0.4734  -0.4694  -0.4663  -0.4585  -0.4474
 -0.4300  -0.3934  -0.3856  -0.3703  -0.3523  -0.2979  -0.2885  -0.2182

          Ground-State Mulliken Net Atomic Charges

     Atom                 Charge (a.u.)
  ----------------------------------------
      1 C                    -0.070563
      2 C                    -0.253943
      3 S                    -0.134181
      4 C                    -0.049624
      5 H                     0.194327
      6 C                    -0.047900
      7 C                     0.214528
      8 C                     0.227978
      9 C                    -0.075214
     10 C                    -0.017560
     11 O                    -0.334311
     12 O                    -0.343564
     13 C                    -0.082745
     14 H                     0.119863
     15 H                     0.091997
     16 H                     0.093167
     17 C                    -0.089408
     18 H                     0.124248
     19 H                     0.092315
     20 H                     0.092246
     21 C                    -0.327855
     22 S                    -0.094165
     23 C                     0.124121
     24 H                     0.201091
     25 C                     0.002438
     26 S                     0.079400
     27 C                    -0.199350
     28 C                    -0.099193
     29 C                    -0.080787
     30 S                     0.015732
     31 C                    -0.157894
     32 C                     0.403701
     33 F                    -0.207705
     34 C                     0.442870
     35 O                    -0.460179
     36 O                    -0.300722
     37 C                    -0.058568
     38 H                     0.121409
     39 H                     0.095225
     40 H                     0.094989
     41 H                     0.216909
     42 H                     0.118177
     43 H                     0.115915
     44 H                     0.202787
  ----------------------------------------
  Sum of atomic charges =     0.000000

                    Cartesian Multipole Moments
 -----------------------------------------------------------------
    Charge (ESU x 10^10)
                -0.0000
    Dipole Moment (Debye)
         X       2.0256      Y       1.8350      Z       2.9648
       Tot       4.0324
    Quadrupole Moments (Debye-Ang)
        XX    -187.3505     XY       4.7175     YY    -175.5725
        XZ     -13.0435     YZ      -2.7021     ZZ    -198.2365

 Total job time:  338.40s(wall), 10754.44s(cpu)
        *  Thank you very much for using Q-Chem.  Have a nice day.  *
