 Q-Chem 5.4, Q-Chem, Inc., Pleasanton, CA (2021)
 Q-Chem 5.4.0 for Intel X86 EM64T Linux

User input:
--------------------------------------------------------------
$molecule
0 1
C	0.296276	-8.517702	-0.123330
C	-0.631143	-7.641575	0.421494
S	1.628795	-7.638634	-0.911611
C	-0.305097	-6.264785	0.233291
H	-1.535988	-7.966081	0.950737
C	0.931114	-6.072714	-0.478557
C	1.405737	-4.787049	-0.781346
C	-1.097747	-5.162801	0.664542
C	-0.624993	-3.874817	0.357854
C	0.613970	-3.683952	-0.352278
O	-2.226300	-5.499772	1.348709
O	2.538827	-4.459055	-1.469658
C	3.663102	-5.329063	-1.419319
H	4.516756	-4.755694	-1.828237
H	3.520769	-6.238095	-2.043793
H	3.895546	-5.637262	-0.377021
C	-3.298492	-4.572261	1.463351
H	-4.152945	-5.139743	1.878237
H	-3.585804	-4.153131	0.475176
H	-3.058230	-3.739531	2.159469
C	0.935761	-2.306654	-0.540664
S	-1.330550	-2.306501	0.780808
C	0.000000	-1.435185	0.000000
H	1.840780	-1.978138	-1.066946
C	0.000000	0.000000	0.000000
S	0.452792	0.783312	1.507541
C	1.238397	2.145556	0.718873
C	0.452875	0.782898	-1.067872
C	1.145945	1.987956	-0.686410
S	0.333556	0.570531	-2.805516
C	1.204604	2.090290	-3.054530
C	1.556633	2.704929	-1.862551
F	2.220797	3.864903	-1.819088
C	1.430252	2.477345	-4.456084
O	1.052242	1.806648	-5.406510
O	2.099050	3.650663	-4.569225
C	2.351116	4.076808	-5.916207
H	2.895579	5.033821	-5.833064
H	1.401015	4.217390	-6.470168
H	2.962391	3.327969	-6.459293
H	1.699302	2.946693	1.306486
H	-0.158021	-9.143623	-0.900433
H	0.750822	-9.149441	0.648903
H	-0.546415	-1.443175	-0.931540
$end

$rem
JOBTYPE		SP
EXCHANGE	HF
CORRELATION	pRIMP2
BASIS		cc-pvtz
METHOD		rimp2
AUX_BASIS	rimp2-cc-pvtz
SOLVENT_METHOD	PCM
PURECART	11111
SYMMETRY	false
MEM_TOTAL	110000
SCF_CONVERGENCE = 6
THRESH=10
GUI = 2
$end

$solvent
dielectric 4.90
$end
--------------------------------------------------------------

             Standard Nuclear Orientation (Angstroms)
    I     Atom           X                Y                Z
 ----------------------------------------------------------------
    1      C       0.2962760000    -8.5177020000    -0.1233300000
    2      C      -0.6311430000    -7.6415750000     0.4214940000
    3      S       1.6287950000    -7.6386340000    -0.9116110000
    4      C      -0.3050970000    -6.2647850000     0.2332910000
    5      H      -1.5359880000    -7.9660810000     0.9507370000
    6      C       0.9311140000    -6.0727140000    -0.4785570000
    7      C       1.4057370000    -4.7870490000    -0.7813460000
    8      C      -1.0977470000    -5.1628010000     0.6645420000
    9      C      -0.6249930000    -3.8748170000     0.3578540000
   10      C       0.6139700000    -3.6839520000    -0.3522780000
   11      O      -2.2263000000    -5.4997720000     1.3487090000
   12      O       2.5388270000    -4.4590550000    -1.4696580000
   13      C       3.6631020000    -5.3290630000    -1.4193190000
   14      H       4.5167560000    -4.7556940000    -1.8282370000
   15      H       3.5207690000    -6.2380950000    -2.0437930000
   16      H       3.8955460000    -5.6372620000    -0.3770210000
   17      C      -3.2984920000    -4.5722610000     1.4633510000
   18      H      -4.1529450000    -5.1397430000     1.8782370000
   19      H      -3.5858040000    -4.1531310000     0.4751760000
   20      H      -3.0582300000    -3.7395310000     2.1594690000
   21      C       0.9357610000    -2.3066540000    -0.5406640000
   22      S      -1.3305500000    -2.3065010000     0.7808080000
   23      C       0.0000000000    -1.4351850000     0.0000000000
   24      H       1.8407800000    -1.9781380000    -1.0669460000
   25      C       0.0000000000     0.0000000000     0.0000000000
   26      S       0.4527920000     0.7833120000     1.5075410000
   27      C       1.2383970000     2.1455560000     0.7188730000
   28      C       0.4528750000     0.7828980000    -1.0678720000
   29      C       1.1459450000     1.9879560000    -0.6864100000
   30      S       0.3335560000     0.5705310000    -2.8055160000
   31      C       1.2046040000     2.0902900000    -3.0545300000
   32      C       1.5566330000     2.7049290000    -1.8625510000
   33      F       2.2207970000     3.8649030000    -1.8190880000
   34      C       1.4302520000     2.4773450000    -4.4560840000
   35      O       1.0522420000     1.8066480000    -5.4065100000
   36      O       2.0990500000     3.6506630000    -4.5692250000
   37      C       2.3511160000     4.0768080000    -5.9162070000
   38      H       2.8955790000     5.0338210000    -5.8330640000
   39      H       1.4010150000     4.2173900000    -6.4701680000
   40      H       2.9623910000     3.3279690000    -6.4592930000
   41      H       1.6993020000     2.9466930000     1.3064860000
   42      H      -0.1580210000    -9.1436230000    -0.9004330000
   43      H       0.7508220000    -9.1494410000     0.6489030000
   44      H      -0.5464150000    -1.4431750000    -0.9315400000
 ----------------------------------------------------------------

   11   -2755.3320343800      6.92e-07  Convergence criterion met
 Total energy in the final basis set =    -2755.3320343800
        RIMP2         total energy =     -2760.4242989916 a.u.

                    Orbital Energies (a.u.)
 --------------------------------------------------------------

 Alpha MOs
 -- Occupied --
-92.0105 -92.0027 -91.9762 -91.9576 -26.3452 -20.6157 -20.5868 -20.5863
-20.5622 -11.4105 -11.3851 -11.3161 -11.3087 -11.3077 -11.3061 -11.2992
-11.2952 -11.2894 -11.2866 -11.2840 -11.2825 -11.2822 -11.2789 -11.2720
-11.2718 -11.2576 -11.2567 -11.2490 -11.2355  -9.0097  -9.0027  -8.9784
 -8.9602  -6.6904  -6.6897  -6.6893  -6.6837  -6.6830  -6.6819  -6.6595
 -6.6587  -6.6574  -6.6414  -6.6405  -6.6395  -1.6622  -1.4682  -1.4098
 -1.4085  -1.3709  -1.2319  -1.2020  -1.1728  -1.1380  -1.1002  -1.0474
 -1.0452  -1.0244  -1.0026  -0.9967  -0.9631  -0.9589  -0.9484  -0.9417
 -0.8927  -0.8714  -0.8636  -0.8123  -0.7982  -0.7904  -0.7836  -0.7671
 -0.7591  -0.7353  -0.7270  -0.7107  -0.7005  -0.6946  -0.6856  -0.6798
 -0.6747  -0.6649  -0.6553  -0.6482  -0.6359  -0.6301  -0.6194  -0.6146
 -0.6115  -0.6000  -0.5928  -0.5772  -0.5716  -0.5659  -0.5574  -0.5552
 -0.5453  -0.5318  -0.5281  -0.5260  -0.5125  -0.5091  -0.5069  -0.5013
 -0.4849  -0.4820  -0.4762  -0.4747  -0.4688  -0.4678  -0.4598  -0.4457
 -0.4233  -0.3993  -0.3839  -0.3693  -0.3516  -0.3037  -0.2885  -0.2191

          Ground-State Mulliken Net Atomic Charges

     Atom                 Charge (a.u.)
  ----------------------------------------
      1 C                    -0.070116
      2 C                    -0.263746
      3 S                    -0.136574
      4 C                    -0.044910
      5 H                     0.192856
      6 C                    -0.053368
      7 C                     0.222168
      8 C                     0.228867
      9 C                    -0.077982
     10 C                    -0.038385
     11 O                    -0.335333
     12 O                    -0.343100
     13 C                    -0.082637
     14 H                     0.119965
     15 H                     0.092126
     16 H                     0.092564
     17 C                    -0.086683
     18 H                     0.123257
     19 H                     0.092242
     20 H                     0.089929
     21 C                    -0.284805
     22 S                    -0.077643
     23 C                     0.073072
     24 H                     0.210350
     25 C                    -0.063200
     26 S                     0.092181
     27 C                    -0.173290
     28 C                    -0.047235
     29 C                    -0.087478
     30 S                     0.021831
     31 C                    -0.156264
     32 C                     0.397671
     33 F                    -0.205247
     34 C                     0.446382
     35 O                    -0.460923
     36 O                    -0.301022
     37 C                    -0.058342
     38 H                     0.121615
     39 H                     0.095307
     40 H                     0.095274
     41 H                     0.217593
     42 H                     0.116889
     43 H                     0.114452
     44 H                     0.191695
  ----------------------------------------
  Sum of atomic charges =     0.000000

                    Cartesian Multipole Moments
 -----------------------------------------------------------------
    Charge (ESU x 10^10)
                 0.0000
    Dipole Moment (Debye)
         X       1.2288      Y       3.0812      Z       2.3129
       Tot       4.0439
    Quadrupole Moments (Debye-Ang)
        XX    -179.9722     XY      10.3839     YY    -180.2656
        XZ      -7.2158     YZ      -8.4948     ZZ    -205.3540

 Total job time:  336.65s(wall), 10779.08s(cpu)
        *  Thank you very much for using Q-Chem.  Have a nice day.  *
