 Q-Chem 5.4, Q-Chem, Inc., Pleasanton, CA (2021)
 Q-Chem 5.4.0 for Intel X86 EM64T Linux

User input:
--------------------------------------------------------------
$molecule
0 1
C	-0.313191	-8.517702	0.070009
C	0.694746	-7.641575	-0.305494
S	-1.762350	-7.638634	0.614924
C	0.340973	-6.264785	-0.176768
H	1.677747	-7.966081	-0.669571
C	-1.000069	-6.072714	0.309600
C	-1.520060	-4.787049	0.525372
C	1.196466	-5.162801	-0.463825
C	0.677639	-3.874817	-0.243888
C	-0.665815	-3.683952	0.240312
O	2.426678	-5.499772	-0.941626
O	-2.755460	-4.459055	1.006468
C	-3.853913	-5.329063	0.761666
H	-4.765607	-4.755694	1.016135
H	-3.822182	-6.238095	1.401368
H	-3.901833	-5.637262	-0.305161
C	3.502489	-4.572261	-0.868342
H	4.416005	-5.139743	-1.128551
H	3.613841	-4.153131	0.154712
H	3.386756	-3.739531	-1.595605
C	-1.015430	-2.306654	0.369957
S	1.445922	-2.306501	-0.537898
C	0.000000	-1.435185	0.000000
H	-1.998088	-1.978138	0.731088
C	0.000000	0.000000	0.000000
S	0.693394	0.581209	1.507541
C	1.897536	1.592607	0.718873
C	0.693330	0.580791	-1.067872
C	1.756758	1.476132	-0.686410
S	0.508573	0.422041	-2.805516
C	1.846879	1.552232	-3.054530
C	2.387897	2.009402	-1.862551
F	3.408741	2.872264	-1.819088
C	2.191300	1.838768	-4.456084
O	1.606694	1.337806	-5.406510
O	3.221062	2.712584	-4.569225
C	3.603677	3.026817	-5.916207
H	4.442623	3.739898	-5.833064
H	2.758956	3.483875	-6.470168
H	3.921969	2.114070	-6.459293
H	2.604650	2.187790	1.306486
H	-0.000738	-9.143623	0.914194
H	-0.626735	-9.149441	-0.769424
H	0.376353	-1.443175	1.012272
$end

$rem
JOBTYPE		SP
EXCHANGE	HF
CORRELATION	pRIMP2
BASIS		cc-pvtz
METHOD		rimp2
AUX_BASIS	rimp2-cc-pvtz
SOLVENT_METHOD	PCM
PURECART	11111
SYMMETRY	false
MEM_TOTAL	110000
SCF_CONVERGENCE = 6
THRESH=10
GUI = 2
$end

$solvent
dielectric 4.90
$end
--------------------------------------------------------------

             Standard Nuclear Orientation (Angstroms)
    I     Atom           X                Y                Z
 ----------------------------------------------------------------
    1      C      -0.3131910000    -8.5177020000     0.0700090000
    2      C       0.6947460000    -7.6415750000    -0.3054940000
    3      S      -1.7623500000    -7.6386340000     0.6149240000
    4      C       0.3409730000    -6.2647850000    -0.1767680000
    5      H       1.6777470000    -7.9660810000    -0.6695710000
    6      C      -1.0000690000    -6.0727140000     0.3096000000
    7      C      -1.5200600000    -4.7870490000     0.5253720000
    8      C       1.1964660000    -5.1628010000    -0.4638250000
    9      C       0.6776390000    -3.8748170000    -0.2438880000
   10      C      -0.6658150000    -3.6839520000     0.2403120000
   11      O       2.4266780000    -5.4997720000    -0.9416260000
   12      O      -2.7554600000    -4.4590550000     1.0064680000
   13      C      -3.8539130000    -5.3290630000     0.7616660000
   14      H      -4.7656070000    -4.7556940000     1.0161350000
   15      H      -3.8221820000    -6.2380950000     1.4013680000
   16      H      -3.9018330000    -5.6372620000    -0.3051610000
   17      C       3.5024890000    -4.5722610000    -0.8683420000
   18      H       4.4160050000    -5.1397430000    -1.1285510000
   19      H       3.6138410000    -4.1531310000     0.1547120000
   20      H       3.3867560000    -3.7395310000    -1.5956050000
   21      C      -1.0154300000    -2.3066540000     0.3699570000
   22      S       1.4459220000    -2.3065010000    -0.5378980000
   23      C       0.0000000000    -1.4351850000     0.0000000000
   24      H      -1.9980880000    -1.9781380000     0.7310880000
   25      C       0.0000000000     0.0000000000     0.0000000000
   26      S       0.6933940000     0.5812090000     1.5075410000
   27      C       1.8975360000     1.5926070000     0.7188730000
   28      C       0.6933300000     0.5807910000    -1.0678720000
   29      C       1.7567580000     1.4761320000    -0.6864100000
   30      S       0.5085730000     0.4220410000    -2.8055160000
   31      C       1.8468790000     1.5522320000    -3.0545300000
   32      C       2.3878970000     2.0094020000    -1.8625510000
   33      F       3.4087410000     2.8722640000    -1.8190880000
   34      C       2.1913000000     1.8387680000    -4.4560840000
   35      O       1.6066940000     1.3378060000    -5.4065100000
   36      O       3.2210620000     2.7125840000    -4.5692250000
   37      C       3.6036770000     3.0268170000    -5.9162070000
   38      H       4.4426230000     3.7398980000    -5.8330640000
   39      H       2.7589560000     3.4838750000    -6.4701680000
   40      H       3.9219690000     2.1140700000    -6.4592930000
   41      H       2.6046500000     2.1877900000     1.3064860000
   42      H      -0.0007380000    -9.1436230000     0.9141940000
   43      H      -0.6267350000    -9.1494410000    -0.7694240000
   44      H       0.3763530000    -1.4431750000     1.0122720000
 ----------------------------------------------------------------

   11   -2755.2922458801      7.76e-07  Convergence criterion met
 Total energy in the final basis set =    -2755.2922458801
        RIMP2         total energy =     -2760.3910488782 a.u.

                    Orbital Energies (a.u.)
 --------------------------------------------------------------

 Alpha MOs
 -- Occupied --
-92.0133 -92.0057 -91.9739 -91.9550 -26.3461 -20.6156 -20.5860 -20.5842
-20.5621 -11.4105 -11.3866 -11.3302 -11.3140 -11.3073 -11.3025 -11.2988
-11.2894 -11.2879 -11.2831 -11.2818 -11.2805 -11.2805 -11.2723 -11.2689
-11.2679 -11.2554 -11.2503 -11.2466 -11.2299  -9.0133  -9.0055  -8.9763
 -8.9576  -6.6940  -6.6931  -6.6928  -6.6864  -6.6857  -6.6847  -6.6573
 -6.6565  -6.6552  -6.6389  -6.6380  -6.6369  -1.6631  -1.4681  -1.4082
 -1.4070  -1.3708  -1.2391  -1.2001  -1.1713  -1.1411  -1.0972  -1.0487
 -1.0424  -1.0288  -1.0013  -0.9934  -0.9663  -0.9579  -0.9469  -0.9404
 -0.8911  -0.8721  -0.8598  -0.8199  -0.7966  -0.7873  -0.7821  -0.7657
 -0.7574  -0.7386  -0.7278  -0.7178  -0.6955  -0.6891  -0.6855  -0.6782
 -0.6747  -0.6622  -0.6544  -0.6470  -0.6352  -0.6299  -0.6170  -0.6141
 -0.6106  -0.6018  -0.5902  -0.5755  -0.5721  -0.5639  -0.5588  -0.5542
 -0.5384  -0.5322  -0.5316  -0.5240  -0.5122  -0.5094  -0.5057  -0.4986
 -0.4874  -0.4817  -0.4759  -0.4744  -0.4691  -0.4647  -0.4581  -0.4443
 -0.4227  -0.3972  -0.3816  -0.3674  -0.3516  -0.3076  -0.2867  -0.2151

          Ground-State Mulliken Net Atomic Charges

     Atom                 Charge (a.u.)
  ----------------------------------------
      1 C                    -0.069106
      2 C                    -0.279585
      3 S                    -0.143140
      4 C                    -0.041246
      5 H                     0.190740
      6 C                    -0.055786
      7 C                     0.224242
      8 C                     0.218241
      9 C                    -0.068747
     10 C                    -0.052647
     11 O                    -0.335676
     12 O                    -0.343369
     13 C                    -0.082649
     14 H                     0.119293
     15 H                     0.091967
     16 H                     0.092915
     17 C                    -0.087302
     18 H                     0.122911
     19 H                     0.090642
     20 H                     0.089866
     21 C                    -0.270749
     22 S                    -0.091589
     23 C                     0.051315
     24 H                     0.204128
     25 C                    -0.111997
     26 S                     0.095719
     27 C                    -0.133415
     28 C                    -0.005192
     29 C                    -0.091323
     30 S                     0.056267
     31 C                    -0.150708
     32 C                     0.396833
     33 F                    -0.204815
     34 C                     0.447132
     35 O                    -0.461396
     36 O                    -0.301246
     37 C                    -0.058261
     38 H                     0.121425
     39 H                     0.095284
     40 H                     0.095387
     41 H                     0.220756
     42 H                     0.114386
     43 H                     0.112313
     44 H                     0.188177
  ----------------------------------------
  Sum of atomic charges =     0.000000

                    Cartesian Multipole Moments
 -----------------------------------------------------------------
    Charge (ESU x 10^10)
                 0.0000
    Dipole Moment (Debye)
         X       3.1728      Y       4.0683      Z       3.1232
       Tot       6.0309
    Quadrupole Moments (Debye-Ang)
        XX    -173.5264     XY       5.6002     YY    -195.0975
        XZ      -5.7406     YZ      -3.3889     ZZ    -204.5674

 Total job time:  328.13s(wall), 10673.56s(cpu)
        *  Thank you very much for using Q-Chem.  Have a nice day.  *
