 Q-Chem 5.4, Q-Chem, Inc., Pleasanton, CA (2021)
 Q-Chem 5.4.0 for Intel X86 EM64T Linux

User input:
--------------------------------------------------------------
$molecule
0 1
C	0.270358	-8.517702	-0.172904
C	-0.548363	-7.641575	0.524688
S	1.445750	-7.638634	-1.180599
C	-0.259951	-6.264785	0.282727
H	-1.347559	-7.966081	1.203014
C	0.833868	-6.072714	-0.632972
C	1.248701	-4.787049	-1.013580
C	-0.965673	-5.162801	0.845068
C	-0.553357	-3.874817	0.460946
C	0.543470	-3.683952	-0.453541
O	-1.958276	-5.499772	1.714812
O	2.245053	-4.459055	-1.888193
C	3.360989	-5.329063	-2.033848
H	4.130667	-4.755694	-2.584788
H	3.112380	-6.238095	-2.624118
H	3.770895	-5.637262	-1.047748
C	-2.994272	-4.572261	2.013896
H	-3.763700	-5.139743	2.570853
H	-3.448815	-4.153131	1.090625
H	-2.636780	-3.739531	2.657717
C	0.827659	-2.306654	-0.694943
S	-1.174750	-2.306501	0.999993
C	0.000000	-1.435185	0.000000
H	1.627541	-1.978138	-1.370385
C	0.000000	0.000000	0.000000
S	0.234628	0.873813	1.507541
C	0.640889	2.392969	0.718873
C	0.234815	0.873434	-1.067872
C	0.592377	2.216811	-0.686410
S	0.174526	0.637422	-2.805516
C	0.622551	2.330840	-3.054530
C	0.803505	3.015647	-1.862551
F	1.144815	4.307994	-1.819088
C	0.740334	2.763108	-4.456084
O	0.548793	2.017428	-5.406510
O	1.082665	4.069544	-4.569225
C	1.215848	4.546407	-5.916207
H	1.494066	5.611729	-5.833064
H	0.261736	4.436296	-6.470168
H	2.000108	3.981294	-6.459293
H	0.878739	3.286099	1.306486
H	-0.311979	-9.143623	-0.859314
H	0.852097	-9.149441	0.508666
H	-0.699874	-1.443175	-0.822504
$end

$rem
JOBTYPE		SP
EXCHANGE	HF
CORRELATION	pRIMP2
BASIS		cc-pvtz
METHOD		rimp2
AUX_BASIS	rimp2-cc-pvtz
SOLVENT_METHOD	PCM
PURECART	11111
SYMMETRY	false
MEM_TOTAL	110000
SCF_CONVERGENCE = 6
THRESH=10
GUI = 2
$end

$solvent
dielectric 4.90
$end
--------------------------------------------------------------

             Standard Nuclear Orientation (Angstroms)
    I     Atom           X                Y                Z
 ----------------------------------------------------------------
    1      C       0.2703580000    -8.5177020000    -0.1729040000
    2      C      -0.5483630000    -7.6415750000     0.5246880000
    3      S       1.4457500000    -7.6386340000    -1.1805990000
    4      C      -0.2599510000    -6.2647850000     0.2827270000
    5      H      -1.3475590000    -7.9660810000     1.2030140000
    6      C       0.8338680000    -6.0727140000    -0.6329720000
    7      C       1.2487010000    -4.7870490000    -1.0135800000
    8      C      -0.9656730000    -5.1628010000     0.8450680000
    9      C      -0.5533570000    -3.8748170000     0.4609460000
   10      C       0.5434700000    -3.6839520000    -0.4535410000
   11      O      -1.9582760000    -5.4997720000     1.7148120000
   12      O       2.2450530000    -4.4590550000    -1.8881930000
   13      C       3.3609890000    -5.3290630000    -2.0338480000
   14      H       4.1306670000    -4.7556940000    -2.5847880000
   15      H       3.1123800000    -6.2380950000    -2.6241180000
   16      H       3.7708950000    -5.6372620000    -1.0477480000
   17      C      -2.9942720000    -4.5722610000     2.0138960000
   18      H      -3.7637000000    -5.1397430000     2.5708530000
   19      H      -3.4488150000    -4.1531310000     1.0906250000
   20      H      -2.6367800000    -3.7395310000     2.6577170000
   21      C       0.8276590000    -2.3066540000    -0.6949430000
   22      S      -1.1747500000    -2.3065010000     0.9999930000
   23      C       0.0000000000    -1.4351850000     0.0000000000
   24      H       1.6275410000    -1.9781380000    -1.3703850000
   25      C       0.0000000000     0.0000000000     0.0000000000
   26      S       0.2346280000     0.8738130000     1.5075410000
   27      C       0.6408890000     2.3929690000     0.7188730000
   28      C       0.2348150000     0.8734340000    -1.0678720000
   29      C       0.5923770000     2.2168110000    -0.6864100000
   30      S       0.1745260000     0.6374220000    -2.8055160000
   31      C       0.6225510000     2.3308400000    -3.0545300000
   32      C       0.8035050000     3.0156470000    -1.8625510000
   33      F       1.1448150000     4.3079940000    -1.8190880000
   34      C       0.7403340000     2.7631080000    -4.4560840000
   35      O       0.5487930000     2.0174280000    -5.4065100000
   36      O       1.0826650000     4.0695440000    -4.5692250000
   37      C       1.2158480000     4.5464070000    -5.9162070000
   38      H       1.4940660000     5.6117290000    -5.8330640000
   39      H       0.2617360000     4.4362960000    -6.4701680000
   40      H       2.0001080000     3.9812940000    -6.4592930000
   41      H       0.8787390000     3.2860990000     1.3064860000
   42      H      -0.3119790000    -9.1436230000    -0.8593140000
   43      H       0.8520970000    -9.1494410000     0.5086660000
   44      H      -0.6998740000    -1.4431750000    -0.8225040000
 ----------------------------------------------------------------

   11   -2755.3427208413      7.35e-07  Convergence criterion met
 Total energy in the final basis set =    -2755.3427208413
        RIMP2         total energy =     -2760.4326828090 a.u.

                    Orbital Energies (a.u.)
 --------------------------------------------------------------

 Alpha MOs
 -- Occupied --
-92.0124 -91.9997 -91.9795 -91.9582 -26.3442 -20.6154 -20.5875 -20.5871
-20.5619 -11.4101 -11.3836 -11.3092 -11.3084 -11.3081 -11.3040 -11.3009
-11.2988 -11.2892 -11.2856 -11.2849 -11.2837 -11.2826 -11.2815 -11.2730
-11.2728 -11.2584 -11.2582 -11.2497 -11.2371  -9.0112  -8.9998  -8.9816
 -8.9608  -6.6920  -6.6914  -6.6909  -6.6809  -6.6801  -6.6790  -6.6628
 -6.6619  -6.6606  -6.6420  -6.6411  -6.6401  -1.6612  -1.4678  -1.4108
 -1.4089  -1.3705  -1.2301  -1.2029  -1.1738  -1.1372  -1.1010  -1.0465
 -1.0461  -1.0235  -1.0037  -0.9978  -0.9625  -0.9594  -0.9488  -0.9413
 -0.8940  -0.8712  -0.8646  -0.8108  -0.7992  -0.7901  -0.7844  -0.7679
 -0.7584  -0.7362  -0.7260  -0.7097  -0.7003  -0.6952  -0.6853  -0.6804
 -0.6744  -0.6647  -0.6560  -0.6487  -0.6365  -0.6306  -0.6201  -0.6149
 -0.6121  -0.5991  -0.5929  -0.5777  -0.5712  -0.5657  -0.5586  -0.5540
 -0.5462  -0.5326  -0.5313  -0.5267  -0.5129  -0.5086  -0.5076  -0.5021
 -0.4852  -0.4817  -0.4764  -0.4744  -0.4692  -0.4682  -0.4615  -0.4468
 -0.4272  -0.3979  -0.3854  -0.3702  -0.3508  -0.3008  -0.2893  -0.2196

          Ground-State Mulliken Net Atomic Charges

     Atom                 Charge (a.u.)
  ----------------------------------------
      1 C                    -0.070312
      2 C                    -0.259463
      3 S                    -0.134935
      4 C                    -0.046503
      5 H                     0.193433
      6 C                    -0.052880
      7 C                     0.220719
      8 C                     0.231738
      9 C                    -0.080163
     10 C                    -0.039323
     11 O                    -0.334811
     12 O                    -0.342796
     13 C                    -0.082911
     14 H                     0.120363
     15 H                     0.092285
     16 H                     0.092550
     17 C                    -0.086818
     18 H                     0.123696
     19 H                     0.092772
     20 H                     0.089996
     21 C                    -0.288392
     22 S                    -0.076310
     23 C                     0.088815
     24 H                     0.211235
     25 C                    -0.058567
     26 S                     0.091860
     27 C                    -0.190858
     28 C                    -0.026925
     29 C                    -0.100736
     30 S                     0.007780
     31 C                    -0.155584
     32 C                     0.397049
     33 F                    -0.206230
     34 C                     0.445329
     35 O                    -0.460716
     36 O                    -0.300705
     37 C                    -0.058428
     38 H                     0.121530
     39 H                     0.095232
     40 H                     0.095174
     41 H                     0.216795
     42 H                     0.117488
     43 H                     0.115001
     44 H                     0.193525
  ----------------------------------------
  Sum of atomic charges =     0.000000

                    Cartesian Multipole Moments
 -----------------------------------------------------------------
    Charge (ESU x 10^10)
                -0.0000
    Dipole Moment (Debye)
         X       0.2167      Y       2.5849      Z       2.5563
       Tot       3.6418
    Quadrupole Moments (Debye-Ang)
        XX    -184.5983     XY       7.0153     YY    -175.1339
        XZ      -8.2519     YZ      -9.9796     ZZ    -204.0004

 Total job time:  345.95s(wall), 10941.84s(cpu)
        *  Thank you very much for using Q-Chem.  Have a nice day.  *
