 Q-Chem 5.4, Q-Chem, Inc., Pleasanton, CA (2021)
 Q-Chem 5.4.0 for Intel X86 EM64T Linux

User input:
--------------------------------------------------------------
$molecule
0 1
C	1.438381	-8.395476	0.318247
C	1.278244	-7.534070	-0.757333
S	1.301894	-7.526914	1.866383
C	1.039133	-6.178202	-0.380867
H	1.328769	-7.854673	-1.805573
C	1.004177	-5.989332	1.045647
C	0.805458	-4.718873	1.608077
C	0.870278	-5.088992	-1.282948
C	0.675402	-3.815501	-0.720187
C	0.637837	-3.628315	0.707853
O	0.900992	-5.425746	-2.602386
O	0.777604	-4.390731	2.933517
C	0.332149	-5.352705	3.881999
H	0.160995	-4.800670	4.825744
H	1.092680	-6.141658	4.070972
H	-0.617733	-5.833149	3.562152
C	1.170109	-4.436474	-3.588253
H	1.335544	-4.983539	-4.535674
H	2.081585	-3.850160	-3.342986
H	0.313504	-3.741940	-3.728239
C	0.400889	-2.271550	1.080725
S	0.389762	-2.273357	-1.542694
C	0.249217	-1.413382	0.000000
H	0.347057	-1.947458	2.127635
C	0.000000	0.000000	0.000000
S	0.000474	0.904764	1.507541
C	-0.000295	2.477305	0.718873
C	0.000752	0.904447	-1.067872
C	-0.001560	2.294593	-0.686410
S	0.003602	0.660872	-2.805516
C	-0.001928	2.412546	-3.054530
C	-0.004381	3.120854	-1.862551
F	-0.009185	4.457503	-1.819088
C	-0.000038	2.860570	-4.456084
O	0.007944	2.090724	-5.406510
O	-0.007501	4.211092	-4.569225
C	-0.002278	4.706177	-5.916207
H	-0.009265	5.807207	-5.833064
H	-0.895381	4.352875	-6.470168
H	0.901521	4.363301	-6.459293
H	-0.001708	3.401562	1.306486
H	2.433535	-8.855580	0.313367
H	0.665647	-9.173214	0.325780
H	1.314143	-1.233719	-0.007439
$end

$rem
JOBTYPE		SP
EXCHANGE	HF
CORRELATION	pRIMP2
BASIS		cc-pvtz
METHOD		rimp2
AUX_BASIS	rimp2-cc-pvtz
SOLVENT_METHOD	PCM
PURECART	11111
SYMMETRY	false
MEM_TOTAL	110000
SCF_CONVERGENCE = 6
THRESH=10
GUI = 2
$end

$solvent
dielectric 4.90
$end
--------------------------------------------------------------

             Standard Nuclear Orientation (Angstroms)
    I     Atom           X                Y                Z
 ----------------------------------------------------------------
    1      C       1.4383810000    -8.3954760000     0.3182470000
    2      C       1.2782440000    -7.5340700000    -0.7573330000
    3      S       1.3018940000    -7.5269140000     1.8663830000
    4      C       1.0391330000    -6.1782020000    -0.3808670000
    5      H       1.3287690000    -7.8546730000    -1.8055730000
    6      C       1.0041770000    -5.9893320000     1.0456470000
    7      C       0.8054580000    -4.7188730000     1.6080770000
    8      C       0.8702780000    -5.0889920000    -1.2829480000
    9      C       0.6754020000    -3.8155010000    -0.7201870000
   10      C       0.6378370000    -3.6283150000     0.7078530000
   11      O       0.9009920000    -5.4257460000    -2.6023860000
   12      O       0.7776040000    -4.3907310000     2.9335170000
   13      C       0.3321490000    -5.3527050000     3.8819990000
   14      H       0.1609950000    -4.8006700000     4.8257440000
   15      H       1.0926800000    -6.1416580000     4.0709720000
   16      H      -0.6177330000    -5.8331490000     3.5621520000
   17      C       1.1701090000    -4.4364740000    -3.5882530000
   18      H       1.3355440000    -4.9835390000    -4.5356740000
   19      H       2.0815850000    -3.8501600000    -3.3429860000
   20      H       0.3135040000    -3.7419400000    -3.7282390000
   21      C       0.4008890000    -2.2715500000     1.0807250000
   22      S       0.3897620000    -2.2733570000    -1.5426940000
   23      C       0.2492170000    -1.4133820000     0.0000000000
   24      H       0.3470570000    -1.9474580000     2.1276350000
   25      C       0.0000000000     0.0000000000     0.0000000000
   26      S       0.0004740000     0.9047640000     1.5075410000
   27      C      -0.0002950000     2.4773050000     0.7188730000
   28      C       0.0007520000     0.9044470000    -1.0678720000
   29      C      -0.0015600000     2.2945930000    -0.6864100000
   30      S       0.0036020000     0.6608720000    -2.8055160000
   31      C      -0.0019280000     2.4125460000    -3.0545300000
   32      C      -0.0043810000     3.1208540000    -1.8625510000
   33      F      -0.0091850000     4.4575030000    -1.8190880000
   34      C      -0.0000380000     2.8605700000    -4.4560840000
   35      O       0.0079440000     2.0907240000    -5.4065100000
   36      O      -0.0075010000     4.2110920000    -4.5692250000
   37      C      -0.0022780000     4.7061770000    -5.9162070000
   38      H      -0.0092650000     5.8072070000    -5.8330640000
   39      H      -0.8953810000     4.3528750000    -6.4701680000
   40      H       0.9015210000     4.3633010000    -6.4592930000
   41      H      -0.0017080000     3.4015620000     1.3064860000
   42      H       2.4335350000    -8.8555800000     0.3133670000
   43      H       0.6656470000    -9.1732140000     0.3257800000
   44      H       1.3141430000    -1.2337190000    -0.0074390000
 ----------------------------------------------------------------

   11   -2755.3420148689      8.49e-07  Convergence criterion met
 Total energy in the final basis set =    -2755.3420148689
        RIMP2         total energy =     -2760.4332747391 a.u.

                    Orbital Energies (a.u.)
 --------------------------------------------------------------

 Alpha MOs
 -- Occupied --
-92.0136 -91.9937 -91.9809 -91.9604 -26.3417 -20.6146 -20.5889 -20.5884
-20.5611 -11.4090 -11.3800 -11.3126 -11.3114 -11.3104 -11.2986 -11.2972
-11.2903 -11.2886 -11.2855 -11.2854 -11.2849 -11.2841 -11.2838 -11.2760
-11.2731 -11.2625 -11.2601 -11.2518 -11.2416  -9.0124  -8.9941  -8.9833
 -8.9629  -6.6933  -6.6927  -6.6921  -6.6751  -6.6744  -6.6732  -6.6644
 -6.6636  -6.6622  -6.6442  -6.6432  -6.6422  -1.6589  -1.4670  -1.4122
 -1.4103  -1.3697  -1.2304  -1.2028  -1.1760  -1.1370  -1.1016  -1.0491
 -1.0439  -1.0238  -1.0052  -0.9985  -0.9637  -0.9569  -0.9499  -0.9421
 -0.8954  -0.8697  -0.8652  -0.8153  -0.7925  -0.7905  -0.7849  -0.7704
 -0.7565  -0.7378  -0.7239  -0.7109  -0.6970  -0.6938  -0.6844  -0.6819
 -0.6736  -0.6644  -0.6569  -0.6498  -0.6387  -0.6318  -0.6220  -0.6163
 -0.6113  -0.5997  -0.5935  -0.5766  -0.5715  -0.5668  -0.5606  -0.5565
 -0.5500  -0.5328  -0.5313  -0.5273  -0.5166  -0.5122  -0.5086  -0.5012
 -0.4849  -0.4791  -0.4767  -0.4737  -0.4705  -0.4659  -0.4599  -0.4484
 -0.4329  -0.3984  -0.3834  -0.3729  -0.3505  -0.3004  -0.2862  -0.2186

          Ground-State Mulliken Net Atomic Charges

     Atom                 Charge (a.u.)
  ----------------------------------------
      1 C                    -0.070887
      2 C                    -0.245901
      3 S                    -0.131331
      4 C                    -0.051422
      5 H                     0.195324
      6 C                    -0.048573
      7 C                     0.219639
      8 C                     0.234139
      9 C                    -0.067061
     10 C                    -0.024685
     11 O                    -0.333787
     12 O                    -0.344231
     13 C                    -0.082739
     14 H                     0.120240
     15 H                     0.092238
     16 H                     0.093235
     17 C                    -0.089921
     18 H                     0.125301
     19 H                     0.093722
     20 H                     0.092033
     21 C                    -0.334731
     22 S                    -0.118949
     23 C                     0.164280
     24 H                     0.196051
     25 C                     0.009877
     26 S                     0.073090
     27 C                    -0.223516
     28 C                    -0.048705
     29 C                    -0.116647
     30 S                    -0.012726
     31 C                    -0.165848
     32 C                     0.410875
     33 F                    -0.208442
     34 C                     0.442083
     35 O                    -0.460747
     36 O                    -0.300540
     37 C                    -0.058894
     38 H                     0.121446
     39 H                     0.095199
     40 H                     0.094990
     41 H                     0.216811
     42 H                     0.119287
     43 H                     0.116944
     44 H                     0.213480
  ----------------------------------------
  Sum of atomic charges =     0.000000

                    Cartesian Multipole Moments
 -----------------------------------------------------------------
    Charge (ESU x 10^10)
                 0.0000
    Dipole Moment (Debye)
         X       0.8594      Y       1.1839      Z       2.7358
       Tot       3.1024
    Quadrupole Moments (Debye-Ang)
        XX    -199.4380     XY      -3.0055     YY    -168.3147
        XZ      -6.3925     YZ      -4.2433     ZZ    -189.7285

 Total job time:  355.53s(wall), 10496.12s(cpu)
        *  Thank you very much for using Q-Chem.  Have a nice day.  *
