 Q-Chem 5.4, Q-Chem, Inc., Pleasanton, CA (2021)
 Q-Chem 5.4.0 for Intel X86 EM64T Linux

User input:
--------------------------------------------------------------
$molecule
0 1
C	-0.296276	-8.517702	0.123330
C	0.631143	-7.641575	-0.421494
S	-1.628795	-7.638634	0.911611
C	0.305097	-6.264785	-0.233291
H	1.535988	-7.966081	-0.950737
C	-0.931114	-6.072714	0.478557
C	-1.405737	-4.787049	0.781346
C	1.097747	-5.162801	-0.664542
C	0.624993	-3.874817	-0.357854
C	-0.613970	-3.683952	0.352278
O	2.226300	-5.499772	-1.348709
O	-2.538827	-4.459055	1.469658
C	-3.663102	-5.329063	1.419319
H	-4.516756	-4.755694	1.828237
H	-3.520769	-6.238095	2.043793
H	-3.895546	-5.637262	0.377021
C	3.298492	-4.572261	-1.463351
H	4.152945	-5.139743	-1.878237
H	3.585804	-4.153131	-0.475176
H	3.058230	-3.739531	-2.159469
C	-0.935761	-2.306654	0.540664
S	1.330550	-2.306501	-0.780808
C	-0.000000	-1.435185	-0.000000
H	-1.840780	-1.978138	1.066946
C	0.000000	0.000000	0.000000
S	0.309893	0.850039	1.507541
C	0.847011	2.328006	0.718873
C	0.310046	0.849645	-1.067872
C	0.783331	2.156746	-0.686410
S	0.229416	0.619785	-2.805516
C	0.823328	2.267711	-3.054530
C	1.063278	2.934142	-1.862551
F	1.515925	4.191824	-1.819088
C	0.978337	2.688069	-4.456084
O	0.722535	1.961921	-5.406510
O	1.433229	3.959697	-4.569225
C	1.607467	4.423139	-5.916207
H	1.977475	5.460158	-5.833064
H	0.647388	4.396602	-6.470168
H	2.339490	3.791823	-6.459293
H	1.161798	3.197007	1.306486
H	0.158021	-9.143623	0.900433
H	-0.750822	-9.149441	-0.648903
H	0.546415	-1.443175	0.931540
$end

$rem
JOBTYPE		SP
EXCHANGE	HF
CORRELATION	pRIMP2
BASIS		cc-pvtz
METHOD		rimp2
AUX_BASIS	rimp2-cc-pvtz
SOLVENT_METHOD	PCM
PURECART	11111
SYMMETRY	false
MEM_TOTAL	110000
SCF_CONVERGENCE = 6
THRESH=10
GUI = 2
$end

$solvent
dielectric 4.90
$end
--------------------------------------------------------------

             Standard Nuclear Orientation (Angstroms)
    I     Atom           X                Y                Z
 ----------------------------------------------------------------
    1      C      -0.2962760000    -8.5177020000     0.1233300000
    2      C       0.6311430000    -7.6415750000    -0.4214940000
    3      S      -1.6287950000    -7.6386340000     0.9116110000
    4      C       0.3050970000    -6.2647850000    -0.2332910000
    5      H       1.5359880000    -7.9660810000    -0.9507370000
    6      C      -0.9311140000    -6.0727140000     0.4785570000
    7      C      -1.4057370000    -4.7870490000     0.7813460000
    8      C       1.0977470000    -5.1628010000    -0.6645420000
    9      C       0.6249930000    -3.8748170000    -0.3578540000
   10      C      -0.6139700000    -3.6839520000     0.3522780000
   11      O       2.2263000000    -5.4997720000    -1.3487090000
   12      O      -2.5388270000    -4.4590550000     1.4696580000
   13      C      -3.6631020000    -5.3290630000     1.4193190000
   14      H      -4.5167560000    -4.7556940000     1.8282370000
   15      H      -3.5207690000    -6.2380950000     2.0437930000
   16      H      -3.8955460000    -5.6372620000     0.3770210000
   17      C       3.2984920000    -4.5722610000    -1.4633510000
   18      H       4.1529450000    -5.1397430000    -1.8782370000
   19      H       3.5858040000    -4.1531310000    -0.4751760000
   20      H       3.0582300000    -3.7395310000    -2.1594690000
   21      C      -0.9357610000    -2.3066540000     0.5406640000
   22      S       1.3305500000    -2.3065010000    -0.7808080000
   23      C       0.0000000000    -1.4351850000     0.0000000000
   24      H      -1.8407800000    -1.9781380000     1.0669460000
   25      C       0.0000000000     0.0000000000     0.0000000000
   26      S       0.3098930000     0.8500390000     1.5075410000
   27      C       0.8470110000     2.3280060000     0.7188730000
   28      C       0.3100460000     0.8496450000    -1.0678720000
   29      C       0.7833310000     2.1567460000    -0.6864100000
   30      S       0.2294160000     0.6197850000    -2.8055160000
   31      C       0.8233280000     2.2677110000    -3.0545300000
   32      C       1.0632780000     2.9341420000    -1.8625510000
   33      F       1.5159250000     4.1918240000    -1.8190880000
   34      C       0.9783370000     2.6880690000    -4.4560840000
   35      O       0.7225350000     1.9619210000    -5.4065100000
   36      O       1.4332290000     3.9596970000    -4.5692250000
   37      C       1.6074670000     4.4231390000    -5.9162070000
   38      H       1.9774750000     5.4601580000    -5.8330640000
   39      H       0.6473880000     4.3966020000    -6.4701680000
   40      H       2.3394900000     3.7918230000    -6.4592930000
   41      H       1.1617980000     3.1970070000     1.3064860000
   42      H       0.1580210000    -9.1436230000     0.9004330000
   43      H      -0.7508220000    -9.1494410000    -0.6489030000
   44      H       0.5464150000    -1.4431750000     0.9315400000
 ----------------------------------------------------------------

   11   -2755.3373548243      7.79e-07  Convergence criterion met
 Total energy in the final basis set =    -2755.3373548243
        RIMP2         total energy =     -2760.4263865995 a.u.

                    Orbital Energies (a.u.)
 --------------------------------------------------------------

 Alpha MOs
 -- Occupied --
-92.0152 -91.9977 -91.9779 -91.9576 -26.3434 -20.6149 -20.5871 -20.5863
-20.5614 -11.4094 -11.3825 -11.3122 -11.3087 -11.3065 -11.3007 -11.2992
-11.2978 -11.2889 -11.2852 -11.2840 -11.2828 -11.2826 -11.2790 -11.2719
-11.2715 -11.2576 -11.2562 -11.2491 -11.2355  -9.0142  -8.9978  -8.9800
 -8.9602  -6.6949  -6.6943  -6.6938  -6.6788  -6.6781  -6.6770  -6.6611
 -6.6602  -6.6589  -6.6414  -6.6405  -6.6395  -1.6605  -1.4673  -1.4099
 -1.4087  -1.3700  -1.2302  -1.2021  -1.1732  -1.1380  -1.0992  -1.0463
 -1.0439  -1.0251  -1.0033  -0.9962  -0.9635  -0.9578  -0.9481  -0.9408
 -0.8930  -0.8685  -0.8655  -0.8153  -0.7954  -0.7892  -0.7841  -0.7677
 -0.7566  -0.7377  -0.7254  -0.7163  -0.6965  -0.6872  -0.6846  -0.6796
 -0.6739  -0.6612  -0.6557  -0.6483  -0.6356  -0.6297  -0.6194  -0.6149
 -0.6108  -0.5994  -0.5918  -0.5765  -0.5714  -0.5632  -0.5598  -0.5566
 -0.5471  -0.5330  -0.5312  -0.5242  -0.5125  -0.5086  -0.5071  -0.5011
 -0.4851  -0.4809  -0.4760  -0.4738  -0.4690  -0.4679  -0.4603  -0.4464
 -0.4258  -0.3974  -0.3848  -0.3694  -0.3520  -0.3000  -0.2891  -0.2191

          Ground-State Mulliken Net Atomic Charges

     Atom                 Charge (a.u.)
  ----------------------------------------
      1 C                    -0.069888
      2 C                    -0.263673
      3 S                    -0.137454
      4 C                    -0.044066
      5 H                     0.192949
      6 C                    -0.050769
      7 C                     0.220706
      8 C                     0.222537
      9 C                    -0.071098
     10 C                    -0.034334
     11 O                    -0.334955
     12 O                    -0.343589
     13 C                    -0.082655
     14 H                     0.119764
     15 H                     0.092007
     16 H                     0.093170
     17 C                    -0.087444
     18 H                     0.123345
     19 H                     0.091780
     20 H                     0.091174
     21 C                    -0.283603
     22 S                    -0.074956
     23 C                     0.075618
     24 H                     0.203875
     25 C                    -0.037247
     26 S                     0.089257
     27 C                    -0.185972
     28 C                    -0.058898
     29 C                    -0.086256
     30 S                     0.018749
     31 C                    -0.155025
     32 C                     0.395807
     33 F                    -0.207065
     34 C                     0.444874
     35 O                    -0.460262
     36 O                    -0.300838
     37 C                    -0.058428
     38 H                     0.121298
     39 H                     0.095203
     40 H                     0.095129
     41 H                     0.218468
     42 H                     0.116706
     43 H                     0.114587
     44 H                     0.191469
  ----------------------------------------
  Sum of atomic charges =     0.000000

                    Cartesian Multipole Moments
 -----------------------------------------------------------------
    Charge (ESU x 10^10)
                -0.0000
    Dipole Moment (Debye)
         X       1.4099      Y       3.0347      Z       3.3470
       Tot       4.7328
    Quadrupole Moments (Debye-Ang)
        XX    -182.2293     XY       1.8288     YY    -178.7763
        XZ      -6.0071     YZ      -4.9687     ZZ    -205.4116

 Total job time:  367.08s(wall), 11266.68s(cpu)
        *  Thank you very much for using Q-Chem.  Have a nice day.  *
