 Q-Chem 5.4, Q-Chem, Inc., Pleasanton, CA (2021)
 Q-Chem 5.4.0 for Intel X86 EM64T Linux

User input:
--------------------------------------------------------------
$molecule
0 1
C	-0.284919	-8.517702	-0.147685
C	0.728574	-7.641575	0.212552
S	-1.745304	-7.638634	-0.661757
C	0.374824	-6.264785	0.083761
H	1.715621	-7.966081	0.565513
C	-0.965104	-6.072714	-0.405665
C	-1.502136	-4.787049	-0.574617
C	1.214687	-5.162801	0.413763
C	0.675870	-3.874817	0.248748
C	-0.664513	-3.683952	-0.243888
O	2.464209	-5.499772	0.838511
O	-2.757750	-4.459055	-1.000176
C	-3.441858	-5.329063	-1.893778
H	-4.303826	-4.755694	-2.284868
H	-3.828743	-6.238095	-1.383341
H	-2.792824	-5.637262	-2.741817
C	3.241222	-4.572261	1.586168
H	4.108274	-5.139743	1.974033
H	2.668916	-4.153131	2.441448
H	3.620041	-3.739531	0.954660
C	-1.015668	-2.306654	-0.369302
S	1.453394	-2.306501	0.517367
C	0.000000	-1.435185	0.000000
H	-2.000559	-1.978138	-0.724300
C	0.000000	0.000000	0.000000
S	0.452792	0.783312	1.507541
C	1.238397	2.145556	0.718873
C	0.452875	0.782898	-1.067872
C	1.145945	1.987956	-0.686410
S	0.333556	0.570531	-2.805516
C	1.204604	2.090290	-3.054530
C	1.556633	2.704929	-1.862551
F	2.220797	3.864903	-1.819088
C	1.430252	2.477345	-4.456084
O	1.052242	1.806648	-5.406510
O	2.099050	3.650663	-4.569225
C	2.351116	4.076808	-5.916207
H	2.895579	5.033821	-5.833064
H	1.401015	4.217390	-6.470168
H	2.962391	3.327969	-6.459293
H	1.699302	2.946693	1.306486
H	-0.588198	-9.143623	0.699838
H	0.014470	-9.149441	-0.992270
H	-0.362373	-1.443175	1.017360
$end

$rem
JOBTYPE		SP
EXCHANGE	HF
CORRELATION	pRIMP2
BASIS		cc-pvtz
METHOD		rimp2
AUX_BASIS	rimp2-cc-pvtz
SOLVENT_METHOD	PCM
PURECART	11111
SYMMETRY	false
MEM_TOTAL	110000
SCF_CONVERGENCE = 6
THRESH=10
GUI = 2
$end

$solvent
dielectric 4.90
$end
--------------------------------------------------------------

             Standard Nuclear Orientation (Angstroms)
    I     Atom           X                Y                Z
 ----------------------------------------------------------------
    1      C      -0.2849190000    -8.5177020000    -0.1476850000
    2      C       0.7285740000    -7.6415750000     0.2125520000
    3      S      -1.7453040000    -7.6386340000    -0.6617570000
    4      C       0.3748240000    -6.2647850000     0.0837610000
    5      H       1.7156210000    -7.9660810000     0.5655130000
    6      C      -0.9651040000    -6.0727140000    -0.4056650000
    7      C      -1.5021360000    -4.7870490000    -0.5746170000
    8      C       1.2146870000    -5.1628010000     0.4137630000
    9      C       0.6758700000    -3.8748170000     0.2487480000
   10      C      -0.6645130000    -3.6839520000    -0.2438880000
   11      O       2.4642090000    -5.4997720000     0.8385110000
   12      O      -2.7577500000    -4.4590550000    -1.0001760000
   13      C      -3.4418580000    -5.3290630000    -1.8937780000
   14      H      -4.3038260000    -4.7556940000    -2.2848680000
   15      H      -3.8287430000    -6.2380950000    -1.3833410000
   16      H      -2.7928240000    -5.6372620000    -2.7418170000
   17      C       3.2412220000    -4.5722610000     1.5861680000
   18      H       4.1082740000    -5.1397430000     1.9740330000
   19      H       2.6689160000    -4.1531310000     2.4414480000
   20      H       3.6200410000    -3.7395310000     0.9546600000
   21      C      -1.0156680000    -2.3066540000    -0.3693020000
   22      S       1.4533940000    -2.3065010000     0.5173670000
   23      C       0.0000000000    -1.4351850000     0.0000000000
   24      H      -2.0005590000    -1.9781380000    -0.7243000000
   25      C       0.0000000000     0.0000000000     0.0000000000
   26      S       0.4527920000     0.7833120000     1.5075410000
   27      C       1.2383970000     2.1455560000     0.7188730000
   28      C       0.4528750000     0.7828980000    -1.0678720000
   29      C       1.1459450000     1.9879560000    -0.6864100000
   30      S       0.3335560000     0.5705310000    -2.8055160000
   31      C       1.2046040000     2.0902900000    -3.0545300000
   32      C       1.5566330000     2.7049290000    -1.8625510000
   33      F       2.2207970000     3.8649030000    -1.8190880000
   34      C       1.4302520000     2.4773450000    -4.4560840000
   35      O       1.0522420000     1.8066480000    -5.4065100000
   36      O       2.0990500000     3.6506630000    -4.5692250000
   37      C       2.3511160000     4.0768080000    -5.9162070000
   38      H       2.8955790000     5.0338210000    -5.8330640000
   39      H       1.4010150000     4.2173900000    -6.4701680000
   40      H       2.9623910000     3.3279690000    -6.4592930000
   41      H       1.6993020000     2.9466930000     1.3064860000
   42      H      -0.5881980000    -9.1436230000     0.6998380000
   43      H       0.0144700000    -9.1494410000    -0.9922700000
   44      H      -0.3623730000    -1.4431750000     1.0173600000
 ----------------------------------------------------------------

   11   -2755.3293952437      7.45e-07  Convergence criterion met
 Total energy in the final basis set =    -2755.3293952437
        RIMP2         total energy =     -2760.4203641276 a.u.

                    Orbital Energies (a.u.)
 --------------------------------------------------------------

 Alpha MOs
 -- Occupied --
-92.0168 -92.0013 -91.9752 -91.9568 -26.3443 -20.6152 -20.5865 -20.5856
-20.5617 -11.4099 -11.3838 -11.3182 -11.3081 -11.3049 -11.3036 -11.2983
-11.2910 -11.2891 -11.2859 -11.2839 -11.2821 -11.2818 -11.2768 -11.2712
-11.2708 -11.2569 -11.2546 -11.2483 -11.2338  -9.0157  -9.0012  -8.9776
 -8.9594  -6.6964  -6.6958  -6.6953  -6.6822  -6.6815  -6.6804  -6.6586
 -6.6578  -6.6565  -6.6406  -6.6397  -6.6387  -1.6614  -1.4677  -1.4092
 -1.4080  -1.3704  -1.2307  -1.2016  -1.1723  -1.1386  -1.0983  -1.0458
 -1.0441  -1.0255  -1.0028  -0.9954  -0.9636  -0.9589  -0.9475  -0.9401
 -0.8924  -0.8696  -0.8645  -0.8146  -0.7982  -0.7883  -0.7836  -0.7665
 -0.7570  -0.7374  -0.7262  -0.7172  -0.6967  -0.6867  -0.6848  -0.6790
 -0.6743  -0.6603  -0.6553  -0.6478  -0.6333  -0.6300  -0.6187  -0.6143
 -0.6114  -0.6000  -0.5912  -0.5747  -0.5718  -0.5633  -0.5577  -0.5533
 -0.5438  -0.5332  -0.5312  -0.5257  -0.5124  -0.5080  -0.5066  -0.5003
 -0.4848  -0.4826  -0.4754  -0.4746  -0.4718  -0.4685  -0.4595  -0.4451
 -0.4228  -0.3982  -0.3846  -0.3687  -0.3502  -0.3038  -0.2879  -0.2188

          Ground-State Mulliken Net Atomic Charges

     Atom                 Charge (a.u.)
  ----------------------------------------
      1 C                    -0.069743
      2 C                    -0.268592
      3 S                    -0.138466
      4 C                    -0.041690
      5 H                     0.192192
      6 C                    -0.053609
      7 C                     0.222509
      8 C                     0.221103
      9 C                    -0.074995
     10 C                    -0.049003
     11 O                    -0.335444
     12 O                    -0.343469
     13 C                    -0.082561
     14 H                     0.119866
     15 H                     0.091697
     16 H                     0.093133
     17 C                    -0.086646
     18 H                     0.122905
     19 H                     0.091167
     20 H                     0.090198
     21 C                    -0.254672
     22 S                    -0.072178
     23 C                     0.021748
     24 H                     0.207152
     25 C                    -0.085253
     26 S                     0.092929
     27 C                    -0.169683
     28 C                     0.030849
     29 C                    -0.099782
     30 S                     0.019962
     31 C                    -0.155724
     32 C                     0.397766
     33 F                    -0.206115
     34 C                     0.445058
     35 O                    -0.460859
     36 O                    -0.301000
     37 C                    -0.058377
     38 H                     0.121437
     39 H                     0.095135
     40 H                     0.095319
     41 H                     0.219599
     42 H                     0.115995
     43 H                     0.113865
     44 H                     0.186279
  ----------------------------------------
  Sum of atomic charges =     0.000000

                    Cartesian Multipole Moments
 -----------------------------------------------------------------
    Charge (ESU x 10^10)
                -0.0000
    Dipole Moment (Debye)
         X       1.5077      Y       3.5968      Z       3.3843
       Tot       5.1637
    Quadrupole Moments (Debye-Ang)
        XX    -186.7728     XY       3.9948     YY    -183.1769
        XZ       5.3486     YZ      -7.5321     ZZ    -198.3031

 Total job time:  334.99s(wall), 10766.37s(cpu)
        *  Thank you very much for using Q-Chem.  Have a nice day.  *
