 Q-Chem 5.4, Q-Chem, Inc., Pleasanton, CA (2021)
 Q-Chem 5.4.0 for Intel X86 EM64T Linux

User input:
--------------------------------------------------------------
$molecule
0 1
C	-0.070009	-8.517702	-0.313191
C	0.305494	-7.641575	0.694746
S	-0.614924	-7.638634	-1.762350
C	0.176768	-6.264785	0.340973
H	0.669571	-7.966081	1.677747
C	-0.309600	-6.072714	-1.000069
C	-0.525372	-4.787049	-1.520060
C	0.463825	-5.162801	1.196466
C	0.243888	-3.874817	0.677639
C	-0.240312	-3.683952	-0.665815
O	0.941626	-5.499772	2.426678
O	-1.006468	-4.459055	-2.755460
C	-0.761666	-5.329063	-3.853913
H	-1.016135	-4.755694	-4.765607
H	-1.401368	-6.238095	-3.822182
H	0.305161	-5.637262	-3.901833
C	0.868342	-4.572261	3.502489
H	1.128551	-5.139743	4.416005
H	-0.154712	-4.153131	3.613841
H	1.595605	-3.739531	3.386756
C	-0.369957	-2.306654	-1.015430
S	0.537898	-2.306501	1.445922
C	-0.000000	-1.435185	-0.000000
H	-0.731088	-1.978138	-1.998088
C	0.000000	0.000000	0.000000
S	0.157577	0.890937	1.507541
C	0.429889	2.439720	0.718873
C	0.157797	0.890576	-1.067872
C	0.396915	2.260004	-0.686410
S	0.118307	0.650207	-2.805516
C	0.417036	2.376229	-3.054530
C	0.537616	3.074202	-1.862551
F	0.764992	4.391378	-1.819088
C	0.496696	2.817118	-4.456084
O	0.370874	2.057582	-5.406510
O	0.723861	4.148418	-4.569225
C	0.814976	4.635075	-5.916207
H	0.999286	5.720591	-5.833064
H	-0.125909	4.442226	-6.470168
H	1.645504	4.140465	-6.459293
H	0.588993	3.350182	1.306486
H	-0.914194	-9.143623	-0.000738
H	0.769424	-9.149441	-0.626735
H	-1.012272	-1.443175	0.376353
$end

$rem
JOBTYPE		SP
EXCHANGE	HF
CORRELATION	pRIMP2
BASIS		cc-pvtz
METHOD		rimp2
AUX_BASIS	rimp2-cc-pvtz
SOLVENT_METHOD	PCM
PURECART	11111
SYMMETRY	false
MEM_TOTAL	110000
SCF_CONVERGENCE = 6
THRESH=10
GUI = 2
$end

$solvent
dielectric 4.90
$end
--------------------------------------------------------------

             Standard Nuclear Orientation (Angstroms)
    I     Atom           X                Y                Z
 ----------------------------------------------------------------
    1      C      -0.0700090000    -8.5177020000    -0.3131910000
    2      C       0.3054940000    -7.6415750000     0.6947460000
    3      S      -0.6149240000    -7.6386340000    -1.7623500000
    4      C       0.1767680000    -6.2647850000     0.3409730000
    5      H       0.6695710000    -7.9660810000     1.6777470000
    6      C      -0.3096000000    -6.0727140000    -1.0000690000
    7      C      -0.5253720000    -4.7870490000    -1.5200600000
    8      C       0.4638250000    -5.1628010000     1.1964660000
    9      C       0.2438880000    -3.8748170000     0.6776390000
   10      C      -0.2403120000    -3.6839520000    -0.6658150000
   11      O       0.9416260000    -5.4997720000     2.4266780000
   12      O      -1.0064680000    -4.4590550000    -2.7554600000
   13      C      -0.7616660000    -5.3290630000    -3.8539130000
   14      H      -1.0161350000    -4.7556940000    -4.7656070000
   15      H      -1.4013680000    -6.2380950000    -3.8221820000
   16      H       0.3051610000    -5.6372620000    -3.9018330000
   17      C       0.8683420000    -4.5722610000     3.5024890000
   18      H       1.1285510000    -5.1397430000     4.4160050000
   19      H      -0.1547120000    -4.1531310000     3.6138410000
   20      H       1.5956050000    -3.7395310000     3.3867560000
   21      C      -0.3699570000    -2.3066540000    -1.0154300000
   22      S       0.5378980000    -2.3065010000     1.4459220000
   23      C       0.0000000000    -1.4351850000     0.0000000000
   24      H      -0.7310880000    -1.9781380000    -1.9980880000
   25      C       0.0000000000     0.0000000000     0.0000000000
   26      S       0.1575770000     0.8909370000     1.5075410000
   27      C       0.4298890000     2.4397200000     0.7188730000
   28      C       0.1577970000     0.8905760000    -1.0678720000
   29      C       0.3969150000     2.2600040000    -0.6864100000
   30      S       0.1183070000     0.6502070000    -2.8055160000
   31      C       0.4170360000     2.3762290000    -3.0545300000
   32      C       0.5376160000     3.0742020000    -1.8625510000
   33      F       0.7649920000     4.3913780000    -1.8190880000
   34      C       0.4966960000     2.8171180000    -4.4560840000
   35      O       0.3708740000     2.0575820000    -5.4065100000
   36      O       0.7238610000     4.1484180000    -4.5692250000
   37      C       0.8149760000     4.6350750000    -5.9162070000
   38      H       0.9992860000     5.7205910000    -5.8330640000
   39      H      -0.1259090000     4.4422260000    -6.4701680000
   40      H       1.6455040000     4.1404650000    -6.4592930000
   41      H       0.5889930000     3.3501820000     1.3064860000
   42      H      -0.9141940000    -9.1436230000    -0.0007380000
   43      H       0.7694240000    -9.1494410000    -0.6267350000
   44      H      -1.0122720000    -1.4431750000     0.3763530000
 ----------------------------------------------------------------

   11   -2755.3407643387      8.82e-07  Convergence criterion met
 Total energy in the final basis set =    -2755.3407643387
        RIMP2         total energy =     -2760.4309410856 a.u.

                    Orbital Energies (a.u.)
 --------------------------------------------------------------

 Alpha MOs
 -- Occupied --
-92.0151 -91.9961 -91.9822 -91.9591 -26.3428 -20.6150 -20.5890 -20.5874
-20.5616 -11.4095 -11.3816 -11.3105 -11.3099 -11.3092 -11.3028 -11.2982
-11.2928 -11.2889 -11.2859 -11.2853 -11.2846 -11.2834 -11.2825 -11.2743
-11.2741 -11.2604 -11.2594 -11.2507 -11.2393  -9.0139  -8.9964  -8.9844
 -8.9617  -6.6947  -6.6941  -6.6935  -6.6774  -6.6767  -6.6755  -6.6656
 -6.6647  -6.6634  -6.6429  -6.6420  -6.6409  -1.6598  -1.4674  -1.4122
 -1.4093  -1.3701  -1.2298  -1.2034  -1.1751  -1.1376  -1.1012  -1.0480
 -1.0447  -1.0237  -1.0047  -0.9991  -0.9631  -0.9594  -0.9495  -0.9406
 -0.8955  -0.8700  -0.8657  -0.8098  -0.8020  -0.7897  -0.7847  -0.7687
 -0.7565  -0.7383  -0.7248  -0.7140  -0.6991  -0.6892  -0.6847  -0.6809
 -0.6739  -0.6627  -0.6573  -0.6493  -0.6386  -0.6318  -0.6210  -0.6155
 -0.6122  -0.5986  -0.5933  -0.5766  -0.5718  -0.5651  -0.5599  -0.5525
 -0.5494  -0.5351  -0.5316  -0.5297  -0.5146  -0.5090  -0.5085  -0.5014
 -0.4854  -0.4813  -0.4775  -0.4739  -0.4718  -0.4676  -0.4605  -0.4474
 -0.4330  -0.3950  -0.3872  -0.3716  -0.3509  -0.2986  -0.2890  -0.2183

          Ground-State Mulliken Net Atomic Charges

     Atom                 Charge (a.u.)
  ----------------------------------------
      1 C                    -0.070468
      2 C                    -0.254357
      3 S                    -0.133273
      4 C                    -0.047225
      5 H                     0.194130
      6 C                    -0.051401
      7 C                     0.226685
      8 C                     0.228189
      9 C                    -0.073509
     10 C                    -0.050158
     11 O                    -0.333708
     12 O                    -0.343906
     13 C                    -0.083148
     14 H                     0.121282
     15 H                     0.092344
     16 H                     0.093048
     17 C                    -0.088345
     18 H                     0.124561
     19 H                     0.092965
     20 H                     0.090234
     21 C                    -0.279915
     22 S                    -0.090768
     23 C                     0.122287
     24 H                     0.201183
     25 C                    -0.087527
     26 S                     0.066357
     27 C                    -0.201826
     28 C                     0.043280
     29 C                    -0.127719
     30 S                    -0.008661
     31 C                    -0.161527
     32 C                     0.405749
     33 F                    -0.207437
     34 C                     0.444520
     35 O                    -0.460422
     36 O                    -0.300528
     37 C                    -0.058718
     38 H                     0.121484
     39 H                     0.095123
     40 H                     0.095198
     41 H                     0.218303
     42 H                     0.118133
     43 H                     0.115963
     44 H                     0.203529
  ----------------------------------------
  Sum of atomic charges =     0.000000

                    Cartesian Multipole Moments
 -----------------------------------------------------------------
    Charge (ESU x 10^10)
                 0.0000
    Dipole Moment (Debye)
         X      -0.1318      Y       1.8161      Z       3.4976
       Tot       3.9432
    Quadrupole Moments (Debye-Ang)
        XX    -201.4553     XY       1.2513     YY    -171.4597
        XZ      -0.8609     YZ     -11.5170     ZZ    -187.7970

 Total job time:  363.62s(wall), 11310.44s(cpu)
        *  Thank you very much for using Q-Chem.  Have a nice day.  *
