 Q-Chem 5.4, Q-Chem, Inc., Pleasanton, CA (2021)
 Q-Chem 5.4.0 for Intel X86 EM64T Linux

User input:
--------------------------------------------------------------
$molecule
0 1
C	0.172904	-8.517702	0.270358
C	-0.524688	-7.641575	-0.548363
S	1.180599	-7.638634	1.445750
C	-0.282727	-6.264785	-0.259951
H	-1.203014	-7.966081	-1.347559
C	0.632972	-6.072714	0.833868
C	1.013580	-4.787049	1.248701
C	-0.845068	-5.162801	-0.965673
C	-0.460946	-3.874817	-0.553357
C	0.453541	-3.683952	0.543470
O	-1.714812	-5.499772	-1.958276
O	1.888193	-4.459055	2.245053
C	2.033848	-5.329063	3.360989
H	2.584788	-4.755694	4.130667
H	2.624118	-6.238095	3.112380
H	1.047748	-5.637262	3.770895
C	-2.013896	-4.572261	-2.994272
H	-2.570853	-5.139743	-3.763700
H	-1.090625	-4.153131	-3.448815
H	-2.657717	-3.739531	-2.636780
C	0.694943	-2.306654	0.827659
S	-0.999993	-2.306501	-1.174750
C	-0.000000	-1.435185	-0.000000
H	1.370385	-1.978138	1.627541
C	0.000000	0.000000	0.000000
S	0.382799	0.819795	1.507541
C	1.046687	2.245325	0.718873
C	0.382918	0.819389	-1.067872
C	0.968323	2.080267	-0.686410
S	0.282561	0.597432	-2.805516
C	1.017839	2.187324	-3.054530
C	1.314960	2.830306	-1.862551
F	1.875498	4.043751	-1.819088
C	1.208895	2.592573	-4.456084
O	0.890778	1.891482	-5.406510
O	1.772886	3.819715	-4.569225
C	1.986852	4.266207	-5.916207
H	2.445834	5.267032	-5.833064
H	1.028114	4.323448	-6.470168
H	2.661066	3.573494	-6.459293
H	1.436015	3.083584	1.306486
H	0.859314	-9.143623	-0.311979
H	-0.508666	-9.149441	0.852097
H	0.822504	-1.443175	-0.699874
$end

$rem
JOBTYPE		SP
EXCHANGE	HF
CORRELATION	pRIMP2
BASIS		cc-pvtz
METHOD		rimp2
AUX_BASIS	rimp2-cc-pvtz
SOLVENT_METHOD	PCM
PURECART	11111
SYMMETRY	false
MEM_TOTAL	110000
SCF_CONVERGENCE = 6
THRESH=10
GUI = 2
$end

$solvent
dielectric 4.90
$end
--------------------------------------------------------------

             Standard Nuclear Orientation (Angstroms)
    I     Atom           X                Y                Z
 ----------------------------------------------------------------
    1      C       0.1729040000    -8.5177020000     0.2703580000
    2      C      -0.5246880000    -7.6415750000    -0.5483630000
    3      S       1.1805990000    -7.6386340000     1.4457500000
    4      C      -0.2827270000    -6.2647850000    -0.2599510000
    5      H      -1.2030140000    -7.9660810000    -1.3475590000
    6      C       0.6329720000    -6.0727140000     0.8338680000
    7      C       1.0135800000    -4.7870490000     1.2487010000
    8      C      -0.8450680000    -5.1628010000    -0.9656730000
    9      C      -0.4609460000    -3.8748170000    -0.5533570000
   10      C       0.4535410000    -3.6839520000     0.5434700000
   11      O      -1.7148120000    -5.4997720000    -1.9582760000
   12      O       1.8881930000    -4.4590550000     2.2450530000
   13      C       2.0338480000    -5.3290630000     3.3609890000
   14      H       2.5847880000    -4.7556940000     4.1306670000
   15      H       2.6241180000    -6.2380950000     3.1123800000
   16      H       1.0477480000    -5.6372620000     3.7708950000
   17      C      -2.0138960000    -4.5722610000    -2.9942720000
   18      H      -2.5708530000    -5.1397430000    -3.7637000000
   19      H      -1.0906250000    -4.1531310000    -3.4488150000
   20      H      -2.6577170000    -3.7395310000    -2.6367800000
   21      C       0.6949430000    -2.3066540000     0.8276590000
   22      S      -0.9999930000    -2.3065010000    -1.1747500000
   23      C       0.0000000000    -1.4351850000     0.0000000000
   24      H       1.3703850000    -1.9781380000     1.6275410000
   25      C       0.0000000000     0.0000000000     0.0000000000
   26      S       0.3827990000     0.8197950000     1.5075410000
   27      C       1.0466870000     2.2453250000     0.7188730000
   28      C       0.3829180000     0.8193890000    -1.0678720000
   29      C       0.9683230000     2.0802670000    -0.6864100000
   30      S       0.2825610000     0.5974320000    -2.8055160000
   31      C       1.0178390000     2.1873240000    -3.0545300000
   32      C       1.3149600000     2.8303060000    -1.8625510000
   33      F       1.8754980000     4.0437510000    -1.8190880000
   34      C       1.2088950000     2.5925730000    -4.4560840000
   35      O       0.8907780000     1.8914820000    -5.4065100000
   36      O       1.7728860000     3.8197150000    -4.5692250000
   37      C       1.9868520000     4.2662070000    -5.9162070000
   38      H       2.4458340000     5.2670320000    -5.8330640000
   39      H       1.0281140000     4.3234480000    -6.4701680000
   40      H       2.6610660000     3.5734940000    -6.4592930000
   41      H       1.4360150000     3.0835840000     1.3064860000
   42      H       0.8593140000    -9.1436230000    -0.3119790000
   43      H      -0.5086660000    -9.1494410000     0.8520970000
   44      H       0.8225040000    -1.4431750000    -0.6998740000
 ----------------------------------------------------------------

   11   -2755.3337525092      7.68e-07  Convergence criterion met
 Total energy in the final basis set =    -2755.3337525092
        RIMP2         total energy =     -2760.4273875427 a.u.

                    Orbital Energies (a.u.)
 --------------------------------------------------------------

 Alpha MOs
 -- Occupied --
-92.0153 -91.9999 -91.9772 -91.9585 -26.3438 -20.6152 -20.5876 -20.5868
-20.5617 -11.4099 -11.3831 -11.3094 -11.3076 -11.3073 -11.3042 -11.2981
-11.2978 -11.2891 -11.2857 -11.2839 -11.2835 -11.2832 -11.2812 -11.2733
-11.2731 -11.2585 -11.2583 -11.2499 -11.2371  -9.0139  -8.9999  -8.9796
 -8.9611  -6.6946  -6.6940  -6.6936  -6.6809  -6.6802  -6.6790  -6.6608
 -6.6599  -6.6586  -6.6423  -6.6414  -6.6404  -1.6609  -1.4677  -1.4104
 -1.4092  -1.3704  -1.2320  -1.2021  -1.1739  -1.1379  -1.1005  -1.0474
 -1.0452  -1.0243  -1.0033  -0.9973  -0.9642  -0.9570  -0.9488  -0.9419
 -0.8934  -0.8707  -0.8636  -0.8162  -0.7930  -0.7895  -0.7847  -0.7685
 -0.7580  -0.7358  -0.7257  -0.7094  -0.7000  -0.6948  -0.6851  -0.6808
 -0.6742  -0.6657  -0.6556  -0.6487  -0.6357  -0.6311  -0.6202  -0.6153
 -0.6109  -0.5998  -0.5937  -0.5758  -0.5711  -0.5646  -0.5586  -0.5557
 -0.5516  -0.5319  -0.5290  -0.5254  -0.5137  -0.5101  -0.5077  -0.5007
 -0.4857  -0.4804  -0.4771  -0.4739  -0.4723  -0.4661  -0.4602  -0.4462
 -0.4301  -0.3965  -0.3837  -0.3706  -0.3500  -0.3013  -0.2883  -0.2180

          Ground-State Mulliken Net Atomic Charges

     Atom                 Charge (a.u.)
  ----------------------------------------
      1 C                    -0.070185
      2 C                    -0.259221
      3 S                    -0.135171
      4 C                    -0.044807
      5 H                     0.193715
      6 C                    -0.051518
      7 C                     0.221144
      8 C                     0.230465
      9 C                    -0.074775
     10 C                    -0.046055
     11 O                    -0.335086
     12 O                    -0.343935
     13 C                    -0.082638
     14 H                     0.119831
     15 H                     0.092291
     16 H                     0.092811
     17 C                    -0.087885
     18 H                     0.123334
     19 H                     0.093344
     20 H                     0.090383
     21 C                    -0.277885
     22 S                    -0.078154
     23 C                     0.046538
     24 H                     0.206344
     25 C                    -0.027227
     26 S                     0.085056
     27 C                    -0.193643
     28 C                    -0.017216
     29 C                    -0.100283
     30 S                     0.009078
     31 C                    -0.156255
     32 C                     0.397107
     33 F                    -0.206150
     34 C                     0.445850
     35 O                    -0.460627
     36 O                    -0.300930
     37 C                    -0.058522
     38 H                     0.121491
     39 H                     0.095240
     40 H                     0.095113
     41 H                     0.217077
     42 H                     0.117590
     43 H                     0.115045
     44 H                     0.199319
  ----------------------------------------
  Sum of atomic charges =     0.000000

                    Cartesian Multipole Moments
 -----------------------------------------------------------------
    Charge (ESU x 10^10)
                -0.0000
    Dipole Moment (Debye)
         X       1.5005      Y       2.3620      Z       2.4694
       Tot       3.7321
    Quadrupole Moments (Debye-Ang)
        XX    -196.7530     XY       8.4537     YY    -177.0533
        XZ       3.0732     YZ      -4.0384     ZZ    -189.9357

 Total job time:  323.26s(wall), 10531.01s(cpu)
        *  Thank you very much for using Q-Chem.  Have a nice day.  *
