 Q-Chem 5.4, Q-Chem, Inc., Pleasanton, CA (2021)
 Q-Chem 5.4.0 for Intel X86 EM64T Linux

User input:
--------------------------------------------------------------
$molecule
0 1
C	-0.070009	-8.517702	-0.313191
C	0.305494	-7.641575	0.694746
S	-0.614924	-7.638634	-1.762350
C	0.176768	-6.264785	0.340973
H	0.669571	-7.966081	1.677747
C	-0.309600	-6.072714	-1.000069
C	-0.525372	-4.787049	-1.520060
C	0.463825	-5.162801	1.196466
C	0.243888	-3.874817	0.677639
C	-0.240312	-3.683952	-0.665815
O	0.941626	-5.499772	2.426678
O	-1.006468	-4.459055	-2.755460
C	-0.761666	-5.329063	-3.853913
H	-1.016135	-4.755694	-4.765607
H	-1.401368	-6.238095	-3.822182
H	0.305161	-5.637262	-3.901833
C	0.868342	-4.572261	3.502489
H	1.128551	-5.139743	4.416005
H	-0.154712	-4.153131	3.613841
H	1.595605	-3.739531	3.386756
C	-0.369957	-2.306654	-1.015430
S	0.537898	-2.306501	1.445922
C	-0.000000	-1.435185	-0.000000
H	-0.731088	-1.978138	-1.998088
C	0.000000	0.000000	0.000000
S	0.382799	0.819795	1.507541
C	1.046687	2.245325	0.718873
C	0.382918	0.819389	-1.067872
C	0.968323	2.080267	-0.686410
S	0.282561	0.597432	-2.805516
C	1.017839	2.187324	-3.054530
C	1.314960	2.830306	-1.862551
F	1.875498	4.043751	-1.819088
C	1.208895	2.592573	-4.456084
O	0.890778	1.891482	-5.406510
O	1.772886	3.819715	-4.569225
C	1.986852	4.266207	-5.916207
H	2.445834	5.267032	-5.833064
H	1.028114	4.323448	-6.470168
H	2.661066	3.573494	-6.459293
H	1.436015	3.083584	1.306486
H	-0.914194	-9.143623	-0.000738
H	0.769424	-9.149441	-0.626735
H	-1.012272	-1.443175	0.376353
$end

$rem
JOBTYPE		SP
EXCHANGE	HF
CORRELATION	pRIMP2
BASIS		cc-pvtz
METHOD		rimp2
AUX_BASIS	rimp2-cc-pvtz
SOLVENT_METHOD	PCM
PURECART	11111
SYMMETRY	false
MEM_TOTAL	110000
SCF_CONVERGENCE = 6
THRESH=10
GUI = 2
$end

$solvent
dielectric 4.90
$end
--------------------------------------------------------------

             Standard Nuclear Orientation (Angstroms)
    I     Atom           X                Y                Z
 ----------------------------------------------------------------
    1      C      -0.0700090000    -8.5177020000    -0.3131910000
    2      C       0.3054940000    -7.6415750000     0.6947460000
    3      S      -0.6149240000    -7.6386340000    -1.7623500000
    4      C       0.1767680000    -6.2647850000     0.3409730000
    5      H       0.6695710000    -7.9660810000     1.6777470000
    6      C      -0.3096000000    -6.0727140000    -1.0000690000
    7      C      -0.5253720000    -4.7870490000    -1.5200600000
    8      C       0.4638250000    -5.1628010000     1.1964660000
    9      C       0.2438880000    -3.8748170000     0.6776390000
   10      C      -0.2403120000    -3.6839520000    -0.6658150000
   11      O       0.9416260000    -5.4997720000     2.4266780000
   12      O      -1.0064680000    -4.4590550000    -2.7554600000
   13      C      -0.7616660000    -5.3290630000    -3.8539130000
   14      H      -1.0161350000    -4.7556940000    -4.7656070000
   15      H      -1.4013680000    -6.2380950000    -3.8221820000
   16      H       0.3051610000    -5.6372620000    -3.9018330000
   17      C       0.8683420000    -4.5722610000     3.5024890000
   18      H       1.1285510000    -5.1397430000     4.4160050000
   19      H      -0.1547120000    -4.1531310000     3.6138410000
   20      H       1.5956050000    -3.7395310000     3.3867560000
   21      C      -0.3699570000    -2.3066540000    -1.0154300000
   22      S       0.5378980000    -2.3065010000     1.4459220000
   23      C       0.0000000000    -1.4351850000     0.0000000000
   24      H      -0.7310880000    -1.9781380000    -1.9980880000
   25      C       0.0000000000     0.0000000000     0.0000000000
   26      S       0.3827990000     0.8197950000     1.5075410000
   27      C       1.0466870000     2.2453250000     0.7188730000
   28      C       0.3829180000     0.8193890000    -1.0678720000
   29      C       0.9683230000     2.0802670000    -0.6864100000
   30      S       0.2825610000     0.5974320000    -2.8055160000
   31      C       1.0178390000     2.1873240000    -3.0545300000
   32      C       1.3149600000     2.8303060000    -1.8625510000
   33      F       1.8754980000     4.0437510000    -1.8190880000
   34      C       1.2088950000     2.5925730000    -4.4560840000
   35      O       0.8907780000     1.8914820000    -5.4065100000
   36      O       1.7728860000     3.8197150000    -4.5692250000
   37      C       1.9868520000     4.2662070000    -5.9162070000
   38      H       2.4458340000     5.2670320000    -5.8330640000
   39      H       1.0281140000     4.3234480000    -6.4701680000
   40      H       2.6610660000     3.5734940000    -6.4592930000
   41      H       1.4360150000     3.0835840000     1.3064860000
   42      H      -0.9141940000    -9.1436230000    -0.0007380000
   43      H       0.7694240000    -9.1494410000    -0.6267350000
   44      H      -1.0122720000    -1.4431750000     0.3763530000
 ----------------------------------------------------------------

   11   -2755.3277278190      8.84e-07  Convergence criterion met
 Total energy in the final basis set =    -2755.3277278190
        RIMP2         total energy =     -2760.4216707497 a.u.

                    Orbital Energies (a.u.)
 --------------------------------------------------------------

 Alpha MOs
 -- Occupied --
-92.0151 -91.9984 -91.9815 -91.9580 -26.3434 -20.6152 -20.5879 -20.5870
-20.5617 -11.4098 -11.3825 -11.3093 -11.3086 -11.3076 -11.3032 -11.2984
-11.2967 -11.2890 -11.2854 -11.2853 -11.2843 -11.2822 -11.2805 -11.2747
-11.2726 -11.2584 -11.2582 -11.2496 -11.2367  -9.0140  -8.9986  -8.9837
 -8.9606  -6.6948  -6.6942  -6.6937  -6.6796  -6.6789  -6.6777  -6.6648
 -6.6639  -6.6626  -6.6418  -6.6409  -6.6399  -1.6605  -1.4676  -1.4112
 -1.4089  -1.3703  -1.2307  -1.2030  -1.1739  -1.1381  -1.1002  -1.0471
 -1.0452  -1.0245  -1.0042  -0.9980  -0.9634  -0.9594  -0.9487  -0.9406
 -0.8948  -0.8698  -0.8653  -0.8108  -0.8011  -0.7899  -0.7839  -0.7676
 -0.7569  -0.7377  -0.7253  -0.7144  -0.6985  -0.6891  -0.6849  -0.6808
 -0.6742  -0.6620  -0.6568  -0.6488  -0.6383  -0.6312  -0.6199  -0.6148
 -0.6121  -0.5992  -0.5929  -0.5768  -0.5709  -0.5650  -0.5591  -0.5545
 -0.5457  -0.5349  -0.5305  -0.5298  -0.5142  -0.5091  -0.5081  -0.5008
 -0.4853  -0.4819  -0.4769  -0.4743  -0.4713  -0.4678  -0.4587  -0.4464
 -0.4322  -0.3940  -0.3865  -0.3706  -0.3508  -0.3000  -0.2885  -0.2165

          Ground-State Mulliken Net Atomic Charges

     Atom                 Charge (a.u.)
  ----------------------------------------
      1 C                    -0.070076
      2 C                    -0.261926
      3 S                    -0.135762
      4 C                    -0.045401
      5 H                     0.193147
      6 C                    -0.052764
      7 C                     0.225471
      8 C                     0.224200
      9 C                    -0.074557
     10 C                    -0.049448
     11 O                    -0.334115
     12 O                    -0.344216
     13 C                    -0.082971
     14 H                     0.121020
     15 H                     0.092289
     16 H                     0.092981
     17 C                    -0.088561
     18 H                     0.124404
     19 H                     0.092547
     20 H                     0.089839
     21 C                    -0.270697
     22 S                    -0.088116
     23 C                     0.085572
     24 H                     0.202762
     25 C                    -0.070445
     26 S                     0.073335
     27 C                    -0.190760
     28 C                     0.026844
     29 C                    -0.114912
     30 S                     0.000817
     31 C                    -0.161836
     32 C                     0.405011
     33 F                    -0.206643
     34 C                     0.445775
     35 O                    -0.460602
     36 O                    -0.300889
     37 C                    -0.058536
     38 H                     0.121533
     39 H                     0.095149
     40 H                     0.095241
     41 H                     0.218815
     42 H                     0.117097
     43 H                     0.114893
     44 H                     0.204491
  ----------------------------------------
  Sum of atomic charges =     0.000000

                    Cartesian Multipole Moments
 -----------------------------------------------------------------
    Charge (ESU x 10^10)
                -0.0000
    Dipole Moment (Debye)
         X       0.6057      Y       2.4363      Z       3.3686
       Tot       4.2011
    Quadrupole Moments (Debye-Ang)
        XX    -199.0630     XY       4.7488     YY    -177.6796
        XZ      -2.7779     YZ     -10.6832     ZZ    -187.5049

 Total job time:  323.77s(wall), 10665.92s(cpu)
        *  Thank you very much for using Q-Chem.  Have a nice day.  *
