 Q-Chem 5.4, Q-Chem, Inc., Pleasanton, CA (2021)
 Q-Chem 5.4.0 for Intel X86 EM64T Linux

User input:
--------------------------------------------------------------
$molecule
0 1
C	0.123330	-8.517702	0.296276
C	-0.421494	-7.641575	-0.631143
S	0.911611	-7.638634	1.628795
C	-0.233291	-6.264785	-0.305097
H	-0.950737	-7.966081	-1.535988
C	0.478557	-6.072714	0.931114
C	0.781346	-4.787049	1.405737
C	-0.664542	-5.162801	-1.097747
C	-0.357854	-3.874817	-0.624993
C	0.352278	-3.683952	0.613970
O	-1.348709	-5.499772	-2.226300
O	1.469658	-4.459055	2.538827
C	1.419319	-5.329063	3.663102
H	1.828237	-4.755694	4.516756
H	2.043793	-6.238095	3.520769
H	0.377021	-5.637262	3.895546
C	-1.463351	-4.572261	-3.298492
H	-1.878237	-5.139743	-4.152945
H	-0.475176	-4.153131	-3.585804
H	-2.159469	-3.739531	-3.058230
C	0.540664	-2.306654	0.935761
S	-0.780808	-2.306501	-1.330550
C	-0.000000	-1.435185	-0.000000
H	1.066946	-1.978138	1.840780
C	0.000000	0.000000	0.000000
S	0.783786	0.451972	1.507541
C	2.145261	1.238908	0.718873
C	0.783650	0.451572	-1.067872
C	1.986396	1.148648	-0.686410
S	0.574133	0.327317	-2.805516
C	2.088363	1.207943	-3.054530
C	2.700548	1.564221	-1.862551
F	3.855718	2.236706	-1.819088
C	2.477307	1.430318	-4.456084
O	1.814592	1.038482	-5.406510
O	3.643162	2.112042	-4.569225
C	4.074530	2.355061	-5.916207
H	5.024556	2.911627	-5.833064
H	3.322010	2.951860	-6.470168
H	4.229490	1.400910	-6.459293
H	2.944986	1.702260	1.306486
H	0.900433	-9.143623	-0.158021
H	-0.648903	-9.149441	0.750822
H	0.931540	-1.443175	-0.546415
$end

$rem
JOBTYPE		SP
EXCHANGE	HF
CORRELATION	pRIMP2
BASIS		cc-pvtz
METHOD		rimp2
AUX_BASIS	rimp2-cc-pvtz
SOLVENT_METHOD	PCM
PURECART	11111
SYMMETRY	false
MEM_TOTAL	110000
SCF_CONVERGENCE = 6
THRESH=10
GUI = 2
$end

$solvent
dielectric 4.90
$end
--------------------------------------------------------------

             Standard Nuclear Orientation (Angstroms)
    I     Atom           X                Y                Z
 ----------------------------------------------------------------
    1      C       0.1233300000    -8.5177020000     0.2962760000
    2      C      -0.4214940000    -7.6415750000    -0.6311430000
    3      S       0.9116110000    -7.6386340000     1.6287950000
    4      C      -0.2332910000    -6.2647850000    -0.3050970000
    5      H      -0.9507370000    -7.9660810000    -1.5359880000
    6      C       0.4785570000    -6.0727140000     0.9311140000
    7      C       0.7813460000    -4.7870490000     1.4057370000
    8      C      -0.6645420000    -5.1628010000    -1.0977470000
    9      C      -0.3578540000    -3.8748170000    -0.6249930000
   10      C       0.3522780000    -3.6839520000     0.6139700000
   11      O      -1.3487090000    -5.4997720000    -2.2263000000
   12      O       1.4696580000    -4.4590550000     2.5388270000
   13      C       1.4193190000    -5.3290630000     3.6631020000
   14      H       1.8282370000    -4.7556940000     4.5167560000
   15      H       2.0437930000    -6.2380950000     3.5207690000
   16      H       0.3770210000    -5.6372620000     3.8955460000
   17      C      -1.4633510000    -4.5722610000    -3.2984920000
   18      H      -1.8782370000    -5.1397430000    -4.1529450000
   19      H      -0.4751760000    -4.1531310000    -3.5858040000
   20      H      -2.1594690000    -3.7395310000    -3.0582300000
   21      C       0.5406640000    -2.3066540000     0.9357610000
   22      S      -0.7808080000    -2.3065010000    -1.3305500000
   23      C       0.0000000000    -1.4351850000     0.0000000000
   24      H       1.0669460000    -1.9781380000     1.8407800000
   25      C       0.0000000000     0.0000000000     0.0000000000
   26      S       0.7837860000     0.4519720000     1.5075410000
   27      C       2.1452610000     1.2389080000     0.7188730000
   28      C       0.7836500000     0.4515720000    -1.0678720000
   29      C       1.9863960000     1.1486480000    -0.6864100000
   30      S       0.5741330000     0.3273170000    -2.8055160000
   31      C       2.0883630000     1.2079430000    -3.0545300000
   32      C       2.7005480000     1.5642210000    -1.8625510000
   33      F       3.8557180000     2.2367060000    -1.8190880000
   34      C       2.4773070000     1.4303180000    -4.4560840000
   35      O       1.8145920000     1.0384820000    -5.4065100000
   36      O       3.6431620000     2.1120420000    -4.5692250000
   37      C       4.0745300000     2.3550610000    -5.9162070000
   38      H       5.0245560000     2.9116270000    -5.8330640000
   39      H       3.3220100000     2.9518600000    -6.4701680000
   40      H       4.2294900000     1.4009100000    -6.4592930000
   41      H       2.9449860000     1.7022600000     1.3064860000
   42      H       0.9004330000    -9.1436230000    -0.1580210000
   43      H      -0.6489030000    -9.1494410000     0.7508220000
   44      H       0.9315400000    -1.4431750000    -0.5464150000
 ----------------------------------------------------------------

   11   -2755.2592807372      8.82e-07  Convergence criterion met
 Total energy in the final basis set =    -2755.2592807372
        RIMP2         total energy =     -2760.3711250097 a.u.

                    Orbital Energies (a.u.)
 --------------------------------------------------------------

 Alpha MOs
 -- Occupied --
-92.0176 -92.0111 -91.9711 -91.9549 -26.3467 -20.6164 -20.5865 -20.5833
-20.5628 -11.4116 -11.3870 -11.3323 -11.3158 -11.3077 -11.3014 -11.2996
-11.2906 -11.2900 -11.2824 -11.2819 -11.2807 -11.2785 -11.2771 -11.2722
-11.2678 -11.2550 -11.2503 -11.2462 -11.2285  -9.0171  -9.0107  -8.9740
 -8.9575  -6.6977  -6.6968  -6.6967  -6.6915  -6.6908  -6.6898  -6.6551
 -6.6542  -6.6530  -6.6388  -6.6379  -6.6368  -1.6638  -1.4689  -1.4085
 -1.4064  -1.3717  -1.2480  -1.1997  -1.1715  -1.1425  -1.0990  -1.0512
 -1.0432  -1.0299  -1.0006  -0.9942  -0.9685  -0.9558  -0.9484  -0.9415
 -0.8910  -0.8752  -0.8560  -0.8221  -0.7963  -0.7860  -0.7812  -0.7660
 -0.7584  -0.7358  -0.7287  -0.7131  -0.7037  -0.6927  -0.6864  -0.6815
 -0.6755  -0.6697  -0.6537  -0.6469  -0.6371  -0.6311  -0.6167  -0.6147
 -0.6092  -0.6041  -0.5928  -0.5806  -0.5692  -0.5645  -0.5579  -0.5548
 -0.5457  -0.5334  -0.5291  -0.5216  -0.5152  -0.5099  -0.5063  -0.4970
 -0.4850  -0.4837  -0.4776  -0.4740  -0.4703  -0.4603  -0.4562  -0.4433
 -0.4286  -0.3972  -0.3748  -0.3698  -0.3480  -0.3111  -0.2846  -0.2104

          Ground-State Mulliken Net Atomic Charges

     Atom                 Charge (a.u.)
  ----------------------------------------
      1 C                    -0.068440
      2 C                    -0.283826
      3 S                    -0.144680
      4 C                    -0.038270
      5 H                     0.190494
      6 C                    -0.053862
      7 C                     0.224890
      8 C                     0.214519
      9 C                    -0.059116
     10 C                    -0.059555
     11 O                    -0.336056
     12 O                    -0.345317
     13 C                    -0.082652
     14 H                     0.118876
     15 H                     0.092322
     16 H                     0.092959
     17 C                    -0.087485
     18 H                     0.122316
     19 H                     0.091265
     20 H                     0.089795
     21 C                    -0.259866
     22 S                    -0.103306
     23 C                     0.070049
     24 H                     0.201704
     25 C                    -0.163827
     26 S                     0.111914
     27 C                    -0.148246
     28 C                     0.065081
     29 C                    -0.125391
     30 S                     0.067882
     31 C                    -0.159191
     32 C                     0.401426
     33 F                    -0.204788
     34 C                     0.448810
     35 O                    -0.461841
     36 O                    -0.301202
     37 C                    -0.058203
     38 H                     0.121723
     39 H                     0.095410
     40 H                     0.095424
     41 H                     0.222518
     42 H                     0.114095
     43 H                     0.111737
     44 H                     0.179912
  ----------------------------------------
  Sum of atomic charges =     0.000000

                    Cartesian Multipole Moments
 -----------------------------------------------------------------
    Charge (ESU x 10^10)
                -0.0000
    Dipole Moment (Debye)
         X       4.0063      Y       3.7466      Z       2.3095
       Tot       5.9516
    Quadrupole Moments (Debye-Ang)
        XX    -188.2262     XY       9.5302     YY    -199.9093
        XZ      -3.0429     YZ      -0.8122     ZZ    -186.0336

 Total job time:  335.47s(wall), 11024.76s(cpu)
        *  Thank you very much for using Q-Chem.  Have a nice day.  *
