 Q-Chem 5.4, Q-Chem, Inc., Pleasanton, CA (2021)
 Q-Chem 5.4.0 for Intel X86 EM64T Linux

User input:
--------------------------------------------------------------
$molecule
0 1
C	-0.296276	-8.517702	0.123330
C	0.631143	-7.641575	-0.421494
S	-1.628795	-7.638634	0.911611
C	0.305097	-6.264785	-0.233291
H	1.535988	-7.966081	-0.950737
C	-0.931114	-6.072714	0.478557
C	-1.405737	-4.787049	0.781346
C	1.097747	-5.162801	-0.664542
C	0.624993	-3.874817	-0.357854
C	-0.613970	-3.683952	0.352278
O	2.226300	-5.499772	-1.348709
O	-2.538827	-4.459055	1.469658
C	-3.663102	-5.329063	1.419319
H	-4.516756	-4.755694	1.828237
H	-3.520769	-6.238095	2.043793
H	-3.895546	-5.637262	0.377021
C	3.298492	-4.572261	-1.463351
H	4.152945	-5.139743	-1.878237
H	3.585804	-4.153131	-0.475176
H	3.058230	-3.739531	-2.159469
C	-0.935761	-2.306654	0.540664
S	1.330550	-2.306501	-0.780808
C	-0.000000	-1.435185	-0.000000
H	-1.840780	-1.978138	1.066946
C	0.000000	0.000000	0.000000
S	0.581934	0.692785	1.507541
C	1.592155	1.897915	0.718873
C	0.581944	0.692363	-1.067872
C	1.473741	1.758764	-0.686410
S	0.427560	0.503942	-2.805516
C	1.549278	1.849357	-3.054530
C	2.002690	2.393529	-1.862551
F	2.858191	3.420549	-1.819088
C	1.838710	2.191348	-4.456084
O	1.349977	1.596481	-5.406510
O	2.701091	3.230705	-4.569225
C	3.023327	3.606605	-5.916207
H	3.725703	4.454534	-5.833064
H	2.112072	3.910035	-6.470168
H	3.495281	2.762996	-6.459293
H	2.185174	2.606846	1.306486
H	0.158021	-9.143623	0.900433
H	-0.750822	-9.149441	-0.648903
H	0.546415	-1.443175	0.931540
$end

$rem
JOBTYPE		SP
EXCHANGE	HF
CORRELATION	pRIMP2
BASIS		cc-pvtz
METHOD		rimp2
AUX_BASIS	rimp2-cc-pvtz
SOLVENT_METHOD	PCM
PURECART	11111
SYMMETRY	false
MEM_TOTAL	110000
SCF_CONVERGENCE = 6
THRESH=10
GUI = 2
$end

$solvent
dielectric 4.90
$end
--------------------------------------------------------------

             Standard Nuclear Orientation (Angstroms)
    I     Atom           X                Y                Z
 ----------------------------------------------------------------
    1      C      -0.2962760000    -8.5177020000     0.1233300000
    2      C       0.6311430000    -7.6415750000    -0.4214940000
    3      S      -1.6287950000    -7.6386340000     0.9116110000
    4      C       0.3050970000    -6.2647850000    -0.2332910000
    5      H       1.5359880000    -7.9660810000    -0.9507370000
    6      C      -0.9311140000    -6.0727140000     0.4785570000
    7      C      -1.4057370000    -4.7870490000     0.7813460000
    8      C       1.0977470000    -5.1628010000    -0.6645420000
    9      C       0.6249930000    -3.8748170000    -0.3578540000
   10      C      -0.6139700000    -3.6839520000     0.3522780000
   11      O       2.2263000000    -5.4997720000    -1.3487090000
   12      O      -2.5388270000    -4.4590550000     1.4696580000
   13      C      -3.6631020000    -5.3290630000     1.4193190000
   14      H      -4.5167560000    -4.7556940000     1.8282370000
   15      H      -3.5207690000    -6.2380950000     2.0437930000
   16      H      -3.8955460000    -5.6372620000     0.3770210000
   17      C       3.2984920000    -4.5722610000    -1.4633510000
   18      H       4.1529450000    -5.1397430000    -1.8782370000
   19      H       3.5858040000    -4.1531310000    -0.4751760000
   20      H       3.0582300000    -3.7395310000    -2.1594690000
   21      C      -0.9357610000    -2.3066540000     0.5406640000
   22      S       1.3305500000    -2.3065010000    -0.7808080000
   23      C       0.0000000000    -1.4351850000     0.0000000000
   24      H      -1.8407800000    -1.9781380000     1.0669460000
   25      C       0.0000000000     0.0000000000     0.0000000000
   26      S       0.5819340000     0.6927850000     1.5075410000
   27      C       1.5921550000     1.8979150000     0.7188730000
   28      C       0.5819440000     0.6923630000    -1.0678720000
   29      C       1.4737410000     1.7587640000    -0.6864100000
   30      S       0.4275600000     0.5039420000    -2.8055160000
   31      C       1.5492780000     1.8493570000    -3.0545300000
   32      C       2.0026900000     2.3935290000    -1.8625510000
   33      F       2.8581910000     3.4205490000    -1.8190880000
   34      C       1.8387100000     2.1913480000    -4.4560840000
   35      O       1.3499770000     1.5964810000    -5.4065100000
   36      O       2.7010910000     3.2307050000    -4.5692250000
   37      C       3.0233270000     3.6066050000    -5.9162070000
   38      H       3.7257030000     4.4545340000    -5.8330640000
   39      H       2.1120720000     3.9100350000    -6.4701680000
   40      H       3.4952810000     2.7629960000    -6.4592930000
   41      H       2.1851740000     2.6068460000     1.3064860000
   42      H       0.1580210000    -9.1436230000     0.9004330000
   43      H      -0.7508220000    -9.1494410000    -0.6489030000
   44      H       0.5464150000    -1.4431750000     0.9315400000
 ----------------------------------------------------------------

   11   -2755.3115404376      7.86e-07  Convergence criterion met
 Total energy in the final basis set =    -2755.3115404376
        RIMP2         total energy =     -2760.4068438017 a.u.

                    Orbital Energies (a.u.)
 --------------------------------------------------------------

 Alpha MOs
 -- Occupied --
-92.0128 -92.0015 -91.9757 -91.9562 -26.3447 -20.6153 -20.5865 -20.5850
-20.5618 -11.4100 -11.3845 -11.3217 -11.3079 -11.3069 -11.3042 -11.2983
-11.2905 -11.2892 -11.2866 -11.2834 -11.2823 -11.2812 -11.2749 -11.2698
-11.2696 -11.2564 -11.2531 -11.2477 -11.2325  -9.0126  -9.0015  -8.9779
 -8.9589  -6.6933  -6.6925  -6.6921  -6.6824  -6.6817  -6.6806  -6.6590
 -6.6581  -6.6568  -6.6401  -6.6392  -6.6381  -1.6618  -1.4678  -1.4089
 -1.4078  -1.3705  -1.2350  -1.2007  -1.1720  -1.1397  -1.0979  -1.0473
 -1.0433  -1.0271  -1.0021  -0.9944  -0.9650  -0.9574  -0.9475  -0.9407
 -0.8920  -0.8702  -0.8620  -0.8177  -0.7954  -0.7882  -0.7828  -0.7666
 -0.7569  -0.7379  -0.7266  -0.7169  -0.6957  -0.6884  -0.6851  -0.6790
 -0.6744  -0.6618  -0.6549  -0.6476  -0.6354  -0.6296  -0.6181  -0.6144
 -0.6107  -0.6006  -0.5911  -0.5752  -0.5725  -0.5637  -0.5596  -0.5555
 -0.5422  -0.5327  -0.5314  -0.5239  -0.5119  -0.5095  -0.5064  -0.4998
 -0.4858  -0.4814  -0.4758  -0.4741  -0.4687  -0.4662  -0.4585  -0.4453
 -0.4251  -0.3966  -0.3824  -0.3682  -0.3529  -0.3029  -0.2876  -0.2165

          Ground-State Mulliken Net Atomic Charges

     Atom                 Charge (a.u.)
  ----------------------------------------
      1 C                    -0.069480
      2 C                    -0.272271
      3 S                    -0.140474
      4 C                    -0.042854
      5 H                     0.191797
      6 C                    -0.051824
      7 C                     0.219329
      8 C                     0.218879
      9 C                    -0.069809
     10 C                    -0.042844
     11 O                    -0.335347
     12 O                    -0.343559
     13 C                    -0.082634
     14 H                     0.119480
     15 H                     0.091944
     16 H                     0.093030
     17 C                    -0.087892
     18 H                     0.123160
     19 H                     0.091105
     20 H                     0.090641
     21 C                    -0.277065
     22 S                    -0.083222
     23 C                     0.060193
     24 H                     0.204249
     25 C                    -0.059125
     26 S                     0.089416
     27 C                    -0.159087
     28 C                    -0.054081
     29 C                    -0.078431
     30 S                     0.041725
     31 C                    -0.151289
     32 C                     0.395751
     33 F                    -0.206042
     34 C                     0.445593
     35 O                    -0.460868
     36 O                    -0.301064
     37 C                    -0.058383
     38 H                     0.121386
     39 H                     0.095300
     40 H                     0.095210
     41 H                     0.219198
     42 H                     0.115518
     43 H                     0.113387
     44 H                     0.191352
  ----------------------------------------
  Sum of atomic charges =     0.000000

                    Cartesian Multipole Moments
 -----------------------------------------------------------------
    Charge (ESU x 10^10)
                 0.0000
    Dipole Moment (Debye)
         X       2.5523      Y       3.5569      Z       3.1786
       Tot       5.4101
    Quadrupole Moments (Debye-Ang)
        XX    -177.3328     XY       5.2026     YY    -188.1026
        XZ      -8.0841     YZ      -3.6668     ZZ    -204.6848

 Total job time:  349.77s(wall), 10168.91s(cpu)
        *  Thank you very much for using Q-Chem.  Have a nice day.  *
