 Q-Chem 5.4, Q-Chem, Inc., Pleasanton, CA (2021)
 Q-Chem 5.4.0 for Intel X86 EM64T Linux

User input:
--------------------------------------------------------------
$molecule
0 1
C	0.318247	-8.517702	0.041330
C	-0.757333	-7.641575	0.049453
S	1.866383	-7.638634	0.024919
C	-0.380867	-6.264785	0.049488
H	-1.805573	-7.966081	0.055368
C	1.045647	-6.072714	0.051115
C	1.608077	-4.787049	0.026203
C	-1.282948	-5.162801	0.026637
C	-0.720187	-3.874817	-0.002586
C	0.707853	-3.683952	0.001903
O	-2.602386	-5.499772	0.054867
O	2.933517	-4.459055	-0.003348
C	3.881999	-5.329063	0.602384
H	4.825744	-4.755694	0.675079
H	4.070972	-6.238095	-0.009592
H	3.562152	-5.637262	1.621263
C	-3.588253	-4.572261	-0.381947
H	-4.535674	-5.139743	-0.449872
H	-3.342986	-4.153131	-1.381388
H	-3.728239	-3.739531	0.341040
C	1.080725	-2.306654	-0.000348
S	-1.542694	-2.306501	0.010924
C	0.000000	-1.435185	0.000000
H	2.127635	-1.978138	-0.003612
C	0.000000	0.000000	0.000000
S	0.452792	0.783312	1.507541
C	1.238397	2.145556	0.718873
C	0.452875	0.782898	-1.067872
C	1.145945	1.987956	-0.686410
S	0.333556	0.570531	-2.805516
C	1.204604	2.090290	-3.054530
C	1.556633	2.704929	-1.862551
F	2.220797	3.864903	-1.819088
C	1.430252	2.477345	-4.456084
O	1.052242	1.806648	-5.406510
O	2.099050	3.650663	-4.569225
C	2.351116	4.076808	-5.916207
H	2.895579	5.033821	-5.833064
H	1.401015	4.217390	-6.470168
H	2.962391	3.327969	-6.459293
H	1.699302	2.946693	1.306486
H	0.313367	-9.143623	-0.858809
H	0.325780	-9.149441	0.937378
H	-0.007439	-1.443175	-1.079945
$end

$rem
JOBTYPE		SP
EXCHANGE	HF
CORRELATION	pRIMP2
BASIS		cc-pvtz
METHOD		rimp2
AUX_BASIS	rimp2-cc-pvtz
SOLVENT_METHOD	PCM
PURECART	11111
SYMMETRY	false
MEM_TOTAL	110000
SCF_CONVERGENCE = 6
THRESH=10
GUI = 2
$end

$solvent
dielectric 4.90
$end
--------------------------------------------------------------

             Standard Nuclear Orientation (Angstroms)
    I     Atom           X                Y                Z
 ----------------------------------------------------------------
    1      C       0.3182470000    -8.5177020000     0.0413300000
    2      C      -0.7573330000    -7.6415750000     0.0494530000
    3      S       1.8663830000    -7.6386340000     0.0249190000
    4      C      -0.3808670000    -6.2647850000     0.0494880000
    5      H      -1.8055730000    -7.9660810000     0.0553680000
    6      C       1.0456470000    -6.0727140000     0.0511150000
    7      C       1.6080770000    -4.7870490000     0.0262030000
    8      C      -1.2829480000    -5.1628010000     0.0266370000
    9      C      -0.7201870000    -3.8748170000    -0.0025860000
   10      C       0.7078530000    -3.6839520000     0.0019030000
   11      O      -2.6023860000    -5.4997720000     0.0548670000
   12      O       2.9335170000    -4.4590550000    -0.0033480000
   13      C       3.8819990000    -5.3290630000     0.6023840000
   14      H       4.8257440000    -4.7556940000     0.6750790000
   15      H       4.0709720000    -6.2380950000    -0.0095920000
   16      H       3.5621520000    -5.6372620000     1.6212630000
   17      C      -3.5882530000    -4.5722610000    -0.3819470000
   18      H      -4.5356740000    -5.1397430000    -0.4498720000
   19      H      -3.3429860000    -4.1531310000    -1.3813880000
   20      H      -3.7282390000    -3.7395310000     0.3410400000
   21      C       1.0807250000    -2.3066540000    -0.0003480000
   22      S      -1.5426940000    -2.3065010000     0.0109240000
   23      C       0.0000000000    -1.4351850000     0.0000000000
   24      H       2.1276350000    -1.9781380000    -0.0036120000
   25      C       0.0000000000     0.0000000000     0.0000000000
   26      S       0.4527920000     0.7833120000     1.5075410000
   27      C       1.2383970000     2.1455560000     0.7188730000
   28      C       0.4528750000     0.7828980000    -1.0678720000
   29      C       1.1459450000     1.9879560000    -0.6864100000
   30      S       0.3335560000     0.5705310000    -2.8055160000
   31      C       1.2046040000     2.0902900000    -3.0545300000
   32      C       1.5566330000     2.7049290000    -1.8625510000
   33      F       2.2207970000     3.8649030000    -1.8190880000
   34      C       1.4302520000     2.4773450000    -4.4560840000
   35      O       1.0522420000     1.8066480000    -5.4065100000
   36      O       2.0990500000     3.6506630000    -4.5692250000
   37      C       2.3511160000     4.0768080000    -5.9162070000
   38      H       2.8955790000     5.0338210000    -5.8330640000
   39      H       1.4010150000     4.2173900000    -6.4701680000
   40      H       2.9623910000     3.3279690000    -6.4592930000
   41      H       1.6993020000     2.9466930000     1.3064860000
   42      H       0.3133670000    -9.1436230000    -0.8588090000
   43      H       0.3257800000    -9.1494410000     0.9373780000
   44      H      -0.0074390000    -1.4431750000    -1.0799450000
 ----------------------------------------------------------------

   11   -2755.3324901673      6.67e-07  Convergence criterion met
 Total energy in the final basis set =    -2755.3324901673
        RIMP2         total energy =     -2760.4239775435 a.u.

                    Orbital Energies (a.u.)
 --------------------------------------------------------------

 Alpha MOs
 -- Occupied --
-92.0109 -92.0034 -91.9726 -91.9578 -26.3455 -20.6157 -20.5868 -20.5856
-20.5622 -11.4106 -11.3856 -11.3181 -11.3090 -11.3084 -11.3051 -11.2992
-11.2934 -11.2895 -11.2863 -11.2833 -11.2827 -11.2810 -11.2775 -11.2724
-11.2709 -11.2573 -11.2569 -11.2492 -11.2357  -9.0101  -9.0035  -8.9750
 -8.9604  -6.6908  -6.6901  -6.6897  -6.6845  -6.6837  -6.6826  -6.6561
 -6.6552  -6.6539  -6.6416  -6.6407  -6.6397  -1.6625  -1.4682  -1.4094
 -1.4082  -1.3709  -1.2322  -1.2013  -1.1726  -1.1382  -1.1001  -1.0478
 -1.0446  -1.0246  -1.0020  -0.9959  -0.9635  -0.9580  -0.9483  -0.9417
 -0.8919  -0.8715  -0.8634  -0.8147  -0.7958  -0.7902  -0.7835  -0.7673
 -0.7594  -0.7345  -0.7272  -0.7113  -0.7010  -0.6941  -0.6857  -0.6793
 -0.6748  -0.6655  -0.6548  -0.6479  -0.6351  -0.6295  -0.6195  -0.6146
 -0.6106  -0.5999  -0.5928  -0.5760  -0.5715  -0.5649  -0.5567  -0.5546
 -0.5497  -0.5318  -0.5265  -0.5242  -0.5124  -0.5096  -0.5066  -0.5007
 -0.4850  -0.4822  -0.4756  -0.4748  -0.4699  -0.4678  -0.4589  -0.4451
 -0.4201  -0.4005  -0.3837  -0.3693  -0.3509  -0.3055  -0.2881  -0.2199

          Ground-State Mulliken Net Atomic Charges

     Atom                 Charge (a.u.)
  ----------------------------------------
      1 C                    -0.070042
      2 C                    -0.262734
      3 S                    -0.136160
      4 C                    -0.043841
      5 H                     0.193175
      6 C                    -0.052559
      7 C                     0.223706
      8 C                     0.226402
      9 C                    -0.081820
     10 C                    -0.042895
     11 O                    -0.335744
     12 O                    -0.343408
     13 C                    -0.082483
     14 H                     0.119702
     15 H                     0.092001
     16 H                     0.092542
     17 C                    -0.086041
     18 H                     0.122446
     19 H                     0.092045
     20 H                     0.090083
     21 C                    -0.256130
     22 S                    -0.078943
     23 C                     0.050234
     24 H                     0.207344
     25 C                    -0.078475
     26 S                     0.088198
     27 C                    -0.168385
     28 C                    -0.011656
     29 C                    -0.089316
     30 S                     0.014679
     31 C                    -0.158169
     32 C                     0.396517
     33 F                    -0.204683
     34 C                     0.446084
     35 O                    -0.461165
     36 O                    -0.301136
     37 C                    -0.058345
     38 H                     0.121583
     39 H                     0.095293
     40 H                     0.095312
     41 H                     0.218156
     42 H                     0.117013
     43 H                     0.114504
     44 H                     0.187111
  ----------------------------------------
  Sum of atomic charges =     0.000000

                    Cartesian Multipole Moments
 -----------------------------------------------------------------
    Charge (ESU x 10^10)
                 0.0000
    Dipole Moment (Debye)
         X       1.5974      Y       3.2231      Z       2.2365
       Tot       4.2358
    Quadrupole Moments (Debye-Ang)
        XX    -181.4938     XY      10.7024     YY    -179.8864
        XZ       1.9528     YZ      -6.7139     ZZ    -203.8988

 Total job time:  337.68s(wall), 10774.83s(cpu)
        *  Thank you very much for using Q-Chem.  Have a nice day.  *
