 Q-Chem 5.4, Q-Chem, Inc., Pleasanton, CA (2021)
 Q-Chem 5.4.0 for Intel X86 EM64T Linux

User input:
--------------------------------------------------------------
$molecule
0 1
C	0.123330	-8.517702	0.296276
C	-0.421494	-7.641575	-0.631143
S	0.911611	-7.638634	1.628795
C	-0.233291	-6.264785	-0.305097
H	-0.950737	-7.966081	-1.535988
C	0.478557	-6.072714	0.931114
C	0.781346	-4.787049	1.405737
C	-0.664542	-5.162801	-1.097747
C	-0.357854	-3.874817	-0.624993
C	0.352278	-3.683952	0.613970
O	-1.348709	-5.499772	-2.226300
O	1.469658	-4.459055	2.538827
C	1.419319	-5.329063	3.663102
H	1.828237	-4.755694	4.516756
H	2.043793	-6.238095	3.520769
H	0.377021	-5.637262	3.895546
C	-1.463351	-4.572261	-3.298492
H	-1.878237	-5.139743	-4.152945
H	-0.475176	-4.153131	-3.585804
H	-2.159469	-3.739531	-3.058230
C	0.540664	-2.306654	0.935761
S	-0.780808	-2.306501	-1.330550
C	0.000000	-1.435185	0.000000
H	1.066946	-1.978138	1.840780
C	0.000000	0.000000	0.000000
S	0.234628	0.873813	1.507541
C	0.640889	2.392969	0.718873
C	0.234815	0.873434	-1.067872
C	0.592377	2.216811	-0.686410
S	0.174526	0.637422	-2.805516
C	0.622551	2.330840	-3.054530
C	0.803505	3.015647	-1.862551
F	1.144815	4.307994	-1.819088
C	0.740334	2.763108	-4.456084
O	0.548793	2.017428	-5.406510
O	1.082665	4.069544	-4.569225
C	1.215848	4.546407	-5.916207
H	1.494066	5.611729	-5.833064
H	0.261736	4.436296	-6.470168
H	2.000108	3.981294	-6.459293
H	0.878739	3.286099	1.306486
H	0.900433	-9.143623	-0.158021
H	-0.648903	-9.149441	0.750822
H	0.931540	-1.443175	-0.546415
$end

$rem
JOBTYPE		SP
EXCHANGE	HF
CORRELATION	pRIMP2
BASIS		cc-pvtz
METHOD		rimp2
AUX_BASIS	rimp2-cc-pvtz
SOLVENT_METHOD	PCM
PURECART	11111
SYMMETRY	false
MEM_TOTAL	110000
SCF_CONVERGENCE = 6
THRESH=10
GUI = 2
$end

$solvent
dielectric 4.90
$end
--------------------------------------------------------------

             Standard Nuclear Orientation (Angstroms)
    I     Atom           X                Y                Z
 ----------------------------------------------------------------
    1      C       0.1233300000    -8.5177020000     0.2962760000
    2      C      -0.4214940000    -7.6415750000    -0.6311430000
    3      S       0.9116110000    -7.6386340000     1.6287950000
    4      C      -0.2332910000    -6.2647850000    -0.3050970000
    5      H      -0.9507370000    -7.9660810000    -1.5359880000
    6      C       0.4785570000    -6.0727140000     0.9311140000
    7      C       0.7813460000    -4.7870490000     1.4057370000
    8      C      -0.6645420000    -5.1628010000    -1.0977470000
    9      C      -0.3578540000    -3.8748170000    -0.6249930000
   10      C       0.3522780000    -3.6839520000     0.6139700000
   11      O      -1.3487090000    -5.4997720000    -2.2263000000
   12      O       1.4696580000    -4.4590550000     2.5388270000
   13      C       1.4193190000    -5.3290630000     3.6631020000
   14      H       1.8282370000    -4.7556940000     4.5167560000
   15      H       2.0437930000    -6.2380950000     3.5207690000
   16      H       0.3770210000    -5.6372620000     3.8955460000
   17      C      -1.4633510000    -4.5722610000    -3.2984920000
   18      H      -1.8782370000    -5.1397430000    -4.1529450000
   19      H      -0.4751760000    -4.1531310000    -3.5858040000
   20      H      -2.1594690000    -3.7395310000    -3.0582300000
   21      C       0.5406640000    -2.3066540000     0.9357610000
   22      S      -0.7808080000    -2.3065010000    -1.3305500000
   23      C       0.0000000000    -1.4351850000     0.0000000000
   24      H       1.0669460000    -1.9781380000     1.8407800000
   25      C       0.0000000000     0.0000000000     0.0000000000
   26      S       0.2346280000     0.8738130000     1.5075410000
   27      C       0.6408890000     2.3929690000     0.7188730000
   28      C       0.2348150000     0.8734340000    -1.0678720000
   29      C       0.5923770000     2.2168110000    -0.6864100000
   30      S       0.1745260000     0.6374220000    -2.8055160000
   31      C       0.6225510000     2.3308400000    -3.0545300000
   32      C       0.8035050000     3.0156470000    -1.8625510000
   33      F       1.1448150000     4.3079940000    -1.8190880000
   34      C       0.7403340000     2.7631080000    -4.4560840000
   35      O       0.5487930000     2.0174280000    -5.4065100000
   36      O       1.0826650000     4.0695440000    -4.5692250000
   37      C       1.2158480000     4.5464070000    -5.9162070000
   38      H       1.4940660000     5.6117290000    -5.8330640000
   39      H       0.2617360000     4.4362960000    -6.4701680000
   40      H       2.0001080000     3.9812940000    -6.4592930000
   41      H       0.8787390000     3.2860990000     1.3064860000
   42      H       0.9004330000    -9.1436230000    -0.1580210000
   43      H      -0.6489030000    -9.1494410000     0.7508220000
   44      H       0.9315400000    -1.4431750000    -0.5464150000
 ----------------------------------------------------------------

   11   -2755.3415515766      7.92e-07  Convergence criterion met
 Total energy in the final basis set =    -2755.3415515766
        RIMP2         total energy =     -2760.4333609506 a.u.

                    Orbital Energies (a.u.)
 --------------------------------------------------------------

 Alpha MOs
 -- Occupied --
-92.0149 -91.9971 -91.9793 -91.9594 -26.3428 -20.6149 -20.5880 -20.5879
-20.5614 -11.4094 -11.3816 -11.3099 -11.3095 -11.3090 -11.3022 -11.2975
-11.2939 -11.2889 -11.2849 -11.2845 -11.2844 -11.2835 -11.2833 -11.2746
-11.2733 -11.2603 -11.2592 -11.2508 -11.2392  -9.0134  -8.9972  -8.9817
 -8.9620  -6.6942  -6.6936  -6.6931  -6.6782  -6.6775  -6.6763  -6.6628
 -6.6619  -6.6606  -6.6432  -6.6423  -6.6412  -1.6599  -1.4673  -1.4113
 -1.4098  -1.3700  -1.2306  -1.2026  -1.1749  -1.1372  -1.1012  -1.0481
 -1.0447  -1.0237  -1.0043  -0.9980  -0.9638  -0.9571  -0.9493  -0.9419
 -0.8944  -0.8704  -0.8645  -0.8155  -0.7923  -0.7901  -0.7851  -0.7694
 -0.7574  -0.7366  -0.7248  -0.7091  -0.6984  -0.6956  -0.6847  -0.6814
 -0.6739  -0.6650  -0.6562  -0.6492  -0.6367  -0.6316  -0.6211  -0.6158
 -0.6111  -0.5995  -0.5936  -0.5761  -0.5713  -0.5654  -0.5596  -0.5562
 -0.5509  -0.5318  -0.5304  -0.5263  -0.5147  -0.5107  -0.5080  -0.5010
 -0.4855  -0.4802  -0.4770  -0.4737  -0.4718  -0.4659  -0.4609  -0.4471
 -0.4316  -0.3968  -0.3843  -0.3715  -0.3500  -0.2997  -0.2882  -0.2186

          Ground-State Mulliken Net Atomic Charges

     Atom                 Charge (a.u.)
  ----------------------------------------
      1 C                    -0.070552
      2 C                    -0.252971
      3 S                    -0.133335
      4 C                    -0.046499
      5 H                     0.194448
      6 C                    -0.051110
      7 C                     0.220782
      8 C                     0.232248
      9 C                    -0.076987
     10 C                    -0.046603
     11 O                    -0.334557
     12 O                    -0.344000
     13 C                    -0.082560
     14 H                     0.120060
     15 H                     0.092134
     16 H                     0.092996
     17 C                    -0.088325
     18 H                     0.123938
     19 H                     0.093806
     20 H                     0.090732
     21 C                    -0.283713
     22 S                    -0.083646
     23 C                     0.074293
     24 H                     0.202846
     25 C                    -0.009673
     26 S                     0.080349
     27 C                    -0.206163
     28 C                    -0.021156
     29 C                    -0.110584
     30 S                    -0.001765
     31 C                    -0.160222
     32 C                     0.400869
     33 F                    -0.207103
     34 C                     0.445283
     35 O                    -0.460527
     36 O                    -0.300690
     37 C                    -0.058592
     38 H                     0.121428
     39 H                     0.095142
     40 H                     0.095019
     41 H                     0.216713
     42 H                     0.118373
     43 H                     0.115974
     44 H                     0.203901
  ----------------------------------------
  Sum of atomic charges =     0.000000

                    Cartesian Multipole Moments
 -----------------------------------------------------------------
    Charge (ESU x 10^10)
                 0.0000
    Dipole Moment (Debye)
         X       1.0506      Y       1.7514      Z       2.5203
       Tot       3.2439
    Quadrupole Moments (Debye-Ang)
        XX    -200.2150     XY       5.8299     YY    -172.3341
        XZ       1.6880     YZ      -3.8117     ZZ    -188.4358

 Total job time:  364.71s(wall), 11144.44s(cpu)
        *  Thank you very much for using Q-Chem.  Have a nice day.  *
