 Q-Chem 5.4, Q-Chem, Inc., Pleasanton, CA (2021)
 Q-Chem 5.4.0 for Intel X86 EM64T Linux

User input:
--------------------------------------------------------------
$molecule
0 1
C	-0.147685	-8.517702	0.284919
C	0.212552	-7.641575	-0.728574
S	-0.661757	-7.638634	1.745304
C	0.083761	-6.264785	-0.374824
H	0.565513	-7.966081	-1.715621
C	-0.405665	-6.072714	0.965104
C	-0.574617	-4.787049	1.502136
C	0.413763	-5.162801	-1.214687
C	0.248748	-3.874817	-0.675870
C	-0.243888	-3.683952	0.664513
O	0.838511	-5.499772	-2.464209
O	-1.000176	-4.459055	2.757750
C	-1.893778	-5.329063	3.441858
H	-2.284868	-4.755694	4.303826
H	-1.383341	-6.238095	3.828743
H	-2.741817	-5.637262	2.792824
C	1.586168	-4.572261	-3.241222
H	1.974033	-5.139743	-4.108274
H	2.441448	-4.153131	-2.668916
H	0.954660	-3.739531	-3.620041
C	-0.369302	-2.306654	1.015668
S	0.517367	-2.306501	-1.453394
C	-0.000000	-1.435185	-0.000000
H	-0.724300	-1.978138	2.000559
C	0.000000	0.000000	0.000000
S	0.157577	0.890937	1.507541
C	0.429889	2.439720	0.718873
C	0.157797	0.890576	-1.067872
C	0.396915	2.260004	-0.686410
S	0.118307	0.650207	-2.805516
C	0.417036	2.376229	-3.054530
C	0.537616	3.074202	-1.862551
F	0.764992	4.391378	-1.819088
C	0.496696	2.817118	-4.456084
O	0.370874	2.057582	-5.406510
O	0.723861	4.148418	-4.569225
C	0.814976	4.635075	-5.916207
H	0.999286	5.720591	-5.833064
H	-0.125909	4.442226	-6.470168
H	1.645504	4.140465	-6.459293
H	0.588993	3.350182	1.306486
H	0.699838	-9.143623	0.588198
H	-0.992270	-9.149441	-0.014470
H	1.017360	-1.443175	0.362373
$end

$rem
JOBTYPE		SP
EXCHANGE	HF
CORRELATION	pRIMP2
BASIS		cc-pvtz
METHOD		rimp2
AUX_BASIS	rimp2-cc-pvtz
SOLVENT_METHOD	PCM
PURECART	11111
SYMMETRY	false
MEM_TOTAL	110000
SCF_CONVERGENCE = 6
THRESH=10
GUI = 2
$end

$solvent
dielectric 4.90
$end
--------------------------------------------------------------

             Standard Nuclear Orientation (Angstroms)
    I     Atom           X                Y                Z
 ----------------------------------------------------------------
    1      C      -0.1476850000    -8.5177020000     0.2849190000
    2      C       0.2125520000    -7.6415750000    -0.7285740000
    3      S      -0.6617570000    -7.6386340000     1.7453040000
    4      C       0.0837610000    -6.2647850000    -0.3748240000
    5      H       0.5655130000    -7.9660810000    -1.7156210000
    6      C      -0.4056650000    -6.0727140000     0.9651040000
    7      C      -0.5746170000    -4.7870490000     1.5021360000
    8      C       0.4137630000    -5.1628010000    -1.2146870000
    9      C       0.2487480000    -3.8748170000    -0.6758700000
   10      C      -0.2438880000    -3.6839520000     0.6645130000
   11      O       0.8385110000    -5.4997720000    -2.4642090000
   12      O      -1.0001760000    -4.4590550000     2.7577500000
   13      C      -1.8937780000    -5.3290630000     3.4418580000
   14      H      -2.2848680000    -4.7556940000     4.3038260000
   15      H      -1.3833410000    -6.2380950000     3.8287430000
   16      H      -2.7418170000    -5.6372620000     2.7928240000
   17      C       1.5861680000    -4.5722610000    -3.2412220000
   18      H       1.9740330000    -5.1397430000    -4.1082740000
   19      H       2.4414480000    -4.1531310000    -2.6689160000
   20      H       0.9546600000    -3.7395310000    -3.6200410000
   21      C      -0.3693020000    -2.3066540000     1.0156680000
   22      S       0.5173670000    -2.3065010000    -1.4533940000
   23      C       0.0000000000    -1.4351850000     0.0000000000
   24      H      -0.7243000000    -1.9781380000     2.0005590000
   25      C       0.0000000000     0.0000000000     0.0000000000
   26      S       0.1575770000     0.8909370000     1.5075410000
   27      C       0.4298890000     2.4397200000     0.7188730000
   28      C       0.1577970000     0.8905760000    -1.0678720000
   29      C       0.3969150000     2.2600040000    -0.6864100000
   30      S       0.1183070000     0.6502070000    -2.8055160000
   31      C       0.4170360000     2.3762290000    -3.0545300000
   32      C       0.5376160000     3.0742020000    -1.8625510000
   33      F       0.7649920000     4.3913780000    -1.8190880000
   34      C       0.4966960000     2.8171180000    -4.4560840000
   35      O       0.3708740000     2.0575820000    -5.4065100000
   36      O       0.7238610000     4.1484180000    -4.5692250000
   37      C       0.8149760000     4.6350750000    -5.9162070000
   38      H       0.9992860000     5.7205910000    -5.8330640000
   39      H      -0.1259090000     4.4422260000    -6.4701680000
   40      H       1.6455040000     4.1404650000    -6.4592930000
   41      H       0.5889930000     3.3501820000     1.3064860000
   42      H       0.6998380000    -9.1436230000     0.5881980000
   43      H      -0.9922700000    -9.1494410000    -0.0144700000
   44      H       1.0173600000    -1.4431750000     0.3623730000
 ----------------------------------------------------------------

   11   -2755.3426471246      8.55e-07  Convergence criterion met
 Total energy in the final basis set =    -2755.3426471246
        RIMP2         total energy =     -2760.4327875254 a.u.

                    Orbital Energies (a.u.)
 --------------------------------------------------------------

 Alpha MOs
 -- Occupied --
-92.0133 -91.9936 -91.9807 -91.9600 -26.3418 -20.6145 -20.5886 -20.5882
-20.5611 -11.4089 -11.3802 -11.3110 -11.3109 -11.3101 -11.3013 -11.2970
-11.2915 -11.2886 -11.2848 -11.2848 -11.2843 -11.2840 -11.2837 -11.2755
-11.2726 -11.2616 -11.2598 -11.2515 -11.2409  -9.0122  -8.9939  -8.9830
 -8.9626  -6.6930  -6.6925  -6.6918  -6.6749  -6.6742  -6.6730  -6.6641
 -6.6632  -6.6619  -6.6438  -6.6429  -6.6419  -1.6590  -1.4669  -1.4119
 -1.4101  -1.3696  -1.2300  -1.2027  -1.1757  -1.1371  -1.1012  -1.0487
 -1.0437  -1.0240  -1.0049  -0.9982  -0.9634  -0.9571  -0.9497  -0.9418
 -0.8951  -0.8689  -0.8657  -0.8150  -0.7931  -0.7901  -0.7850  -0.7701
 -0.7562  -0.7379  -0.7240  -0.7128  -0.6973  -0.6910  -0.6843  -0.6813
 -0.6735  -0.6635  -0.6568  -0.6496  -0.6385  -0.6312  -0.6218  -0.6161
 -0.6112  -0.5994  -0.5933  -0.5768  -0.5713  -0.5659  -0.5600  -0.5575
 -0.5497  -0.5333  -0.5311  -0.5267  -0.5152  -0.5119  -0.5084  -0.5016
 -0.4849  -0.4777  -0.4772  -0.4737  -0.4698  -0.4669  -0.4603  -0.4483
 -0.4318  -0.3965  -0.3852  -0.3721  -0.3511  -0.2989  -0.2875  -0.2191

          Ground-State Mulliken Net Atomic Charges

     Atom                 Charge (a.u.)
  ----------------------------------------
      1 C                    -0.070686
      2 C                    -0.248477
      3 S                    -0.132009
      4 C                    -0.052006
      5 H                     0.195036
      6 C                    -0.049155
      7 C                     0.219359
      8 C                     0.234204
      9 C                    -0.071997
     10 C                    -0.011666
     11 O                    -0.333894
     12 O                    -0.343800
     13 C                    -0.082833
     14 H                     0.120156
     15 H                     0.092180
     16 H                     0.093321
     17 C                    -0.090026
     18 H                     0.124994
     19 H                     0.093150
     20 H                     0.092531
     21 C                    -0.347260
     22 S                    -0.107506
     23 C                     0.178956
     24 H                     0.197000
     25 C                    -0.016362
     26 S                     0.077927
     27 C                    -0.217259
     28 C                    -0.064621
     29 C                    -0.105259
     30 S                    -0.006168
     31 C                    -0.162955
     32 C                     0.409670
     33 F                    -0.208505
     34 C                     0.441378
     35 O                    -0.460247
     36 O                    -0.300485
     37 C                    -0.058837
     38 H                     0.121360
     39 H                     0.095205
     40 H                     0.094980
     41 H                     0.216435
     42 H                     0.118922
     43 H                     0.116669
     44 H                     0.208578
  ----------------------------------------
  Sum of atomic charges =     0.000000

                    Cartesian Multipole Moments
 -----------------------------------------------------------------
    Charge (ESU x 10^10)
                -0.0000
    Dipole Moment (Debye)
         X       1.1147      Y       1.2968      Z       2.9875
       Tot       3.4423
    Quadrupole Moments (Debye-Ang)
        XX    -194.0770     XY       1.0622     YY    -169.2312
        XZ     -10.5301     YZ      -3.3076     ZZ    -195.2624

 Total job time:  360.48s(wall), 11418.72s(cpu)
        *  Thank you very much for using Q-Chem.  Have a nice day.  *
