 Q-Chem 5.4, Q-Chem, Inc., Pleasanton, CA (2021)
 Q-Chem 5.4.0 for Intel X86 EM64T Linux

User input:
--------------------------------------------------------------
$molecule
0 1
C	0.147685	-8.517702	-0.284919
C	-0.212552	-7.641575	0.728574
S	0.661757	-7.638634	-1.745304
C	-0.083761	-6.264785	0.374824
H	-0.565513	-7.966081	1.715621
C	0.405665	-6.072714	-0.965104
C	0.574617	-4.787049	-1.502136
C	-0.413763	-5.162801	1.214687
C	-0.248748	-3.874817	0.675870
C	0.243888	-3.683952	-0.664513
O	-0.838511	-5.499772	2.464209
O	1.000176	-4.459055	-2.757750
C	1.893778	-5.329063	-3.441858
H	2.284868	-4.755694	-4.303826
H	1.383341	-6.238095	-3.828743
H	2.741817	-5.637262	-2.792824
C	-1.586168	-4.572261	3.241222
H	-1.974033	-5.139743	4.108274
H	-2.441448	-4.153131	2.668916
H	-0.954660	-3.739531	3.620041
C	0.369302	-2.306654	-1.015668
S	-0.517367	-2.306501	1.453394
C	0.000000	-1.435185	0.000000
H	0.724300	-1.978138	-2.000559
C	0.000000	0.000000	0.000000
S	0.693394	0.581209	1.507541
C	1.897536	1.592607	0.718873
C	0.693330	0.580791	-1.067872
C	1.756758	1.476132	-0.686410
S	0.508573	0.422041	-2.805516
C	1.846879	1.552232	-3.054530
C	2.387897	2.009402	-1.862551
F	3.408741	2.872264	-1.819088
C	2.191300	1.838768	-4.456084
O	1.606694	1.337806	-5.406510
O	3.221062	2.712584	-4.569225
C	3.603677	3.026817	-5.916207
H	4.442623	3.739898	-5.833064
H	2.758956	3.483875	-6.470168
H	3.921969	2.114070	-6.459293
H	2.604650	2.187790	1.306486
H	-0.699838	-9.143623	-0.588198
H	0.992270	-9.149441	0.014470
H	-1.017360	-1.443175	-0.362373
$end

$rem
JOBTYPE		SP
EXCHANGE	HF
CORRELATION	pRIMP2
BASIS		cc-pvtz
METHOD		rimp2
AUX_BASIS	rimp2-cc-pvtz
SOLVENT_METHOD	PCM
PURECART	11111
SYMMETRY	false
MEM_TOTAL	110000
SCF_CONVERGENCE = 6
THRESH=10
GUI = 2
$end

$solvent
dielectric 4.90
$end
--------------------------------------------------------------

             Standard Nuclear Orientation (Angstroms)
    I     Atom           X                Y                Z
 ----------------------------------------------------------------
    1      C       0.1476850000    -8.5177020000    -0.2849190000
    2      C      -0.2125520000    -7.6415750000     0.7285740000
    3      S       0.6617570000    -7.6386340000    -1.7453040000
    4      C      -0.0837610000    -6.2647850000     0.3748240000
    5      H      -0.5655130000    -7.9660810000     1.7156210000
    6      C       0.4056650000    -6.0727140000    -0.9651040000
    7      C       0.5746170000    -4.7870490000    -1.5021360000
    8      C      -0.4137630000    -5.1628010000     1.2146870000
    9      C      -0.2487480000    -3.8748170000     0.6758700000
   10      C       0.2438880000    -3.6839520000    -0.6645130000
   11      O      -0.8385110000    -5.4997720000     2.4642090000
   12      O       1.0001760000    -4.4590550000    -2.7577500000
   13      C       1.8937780000    -5.3290630000    -3.4418580000
   14      H       2.2848680000    -4.7556940000    -4.3038260000
   15      H       1.3833410000    -6.2380950000    -3.8287430000
   16      H       2.7418170000    -5.6372620000    -2.7928240000
   17      C      -1.5861680000    -4.5722610000     3.2412220000
   18      H      -1.9740330000    -5.1397430000     4.1082740000
   19      H      -2.4414480000    -4.1531310000     2.6689160000
   20      H      -0.9546600000    -3.7395310000     3.6200410000
   21      C       0.3693020000    -2.3066540000    -1.0156680000
   22      S      -0.5173670000    -2.3065010000     1.4533940000
   23      C       0.0000000000    -1.4351850000     0.0000000000
   24      H       0.7243000000    -1.9781380000    -2.0005590000
   25      C       0.0000000000     0.0000000000     0.0000000000
   26      S       0.6933940000     0.5812090000     1.5075410000
   27      C       1.8975360000     1.5926070000     0.7188730000
   28      C       0.6933300000     0.5807910000    -1.0678720000
   29      C       1.7567580000     1.4761320000    -0.6864100000
   30      S       0.5085730000     0.4220410000    -2.8055160000
   31      C       1.8468790000     1.5522320000    -3.0545300000
   32      C       2.3878970000     2.0094020000    -1.8625510000
   33      F       3.4087410000     2.8722640000    -1.8190880000
   34      C       2.1913000000     1.8387680000    -4.4560840000
   35      O       1.6066940000     1.3378060000    -5.4065100000
   36      O       3.2210620000     2.7125840000    -4.5692250000
   37      C       3.6036770000     3.0268170000    -5.9162070000
   38      H       4.4426230000     3.7398980000    -5.8330640000
   39      H       2.7589560000     3.4838750000    -6.4701680000
   40      H       3.9219690000     2.1140700000    -6.4592930000
   41      H       2.6046500000     2.1877900000     1.3064860000
   42      H      -0.6998380000    -9.1436230000    -0.5881980000
   43      H       0.9922700000    -9.1494410000     0.0144700000
   44      H      -1.0173600000    -1.4431750000    -0.3623730000
 ----------------------------------------------------------------

   11   -2755.2859971590      7.65e-07  Convergence criterion met
 Total energy in the final basis set =    -2755.2859971590
        RIMP2         total energy =     -2760.3910370511 a.u.

                    Orbital Energies (a.u.)
 --------------------------------------------------------------

 Alpha MOs
 -- Occupied --
-92.0106 -92.0066 -91.9782 -91.9556 -26.3460 -20.6161 -20.5862 -20.5856
-20.5626 -11.4111 -11.3863 -11.3227 -11.3116 -11.3082 -11.3047 -11.2995
-11.2898 -11.2880 -11.2840 -11.2840 -11.2827 -11.2818 -11.2746 -11.2716
-11.2689 -11.2563 -11.2527 -11.2472 -11.2314  -9.0103  -9.0067  -8.9803
 -8.9583  -6.6910  -6.6900  -6.6897  -6.6876  -6.6868  -6.6858  -6.6615
 -6.6606  -6.6594  -6.6395  -6.6386  -6.6376  -1.6630  -1.4686  -1.4091
 -1.4078  -1.3714  -1.2369  -1.2011  -1.1715  -1.1400  -1.0989  -1.0491
 -1.0445  -1.0266  -1.0018  -0.9959  -0.9646  -0.9597  -0.9476  -0.9413
 -0.8929  -0.8721  -0.8612  -0.8127  -0.8001  -0.7912  -0.7817  -0.7651
 -0.7587  -0.7363  -0.7277  -0.7129  -0.6987  -0.6930  -0.6860  -0.6811
 -0.6752  -0.6634  -0.6556  -0.6477  -0.6386  -0.6306  -0.6177  -0.6141
 -0.6118  -0.6015  -0.5923  -0.5788  -0.5712  -0.5663  -0.5576  -0.5561
 -0.5378  -0.5331  -0.5301  -0.5247  -0.5115  -0.5106  -0.5067  -0.4999
 -0.4869  -0.4813  -0.4775  -0.4745  -0.4692  -0.4630  -0.4564  -0.4446
 -0.4293  -0.3934  -0.3824  -0.3681  -0.3503  -0.3048  -0.2867  -0.2129

          Ground-State Mulliken Net Atomic Charges

     Atom                 Charge (a.u.)
  ----------------------------------------
      1 C                    -0.069056
      2 C                    -0.276891
      3 S                    -0.141807
      4 C                    -0.043208
      5 H                     0.191166
      6 C                    -0.055541
      7 C                     0.229608
      8 C                     0.227304
      9 C                    -0.072240
     10 C                    -0.055770
     11 O                    -0.335194
     12 O                    -0.344206
     13 C                    -0.083179
     14 H                     0.120396
     15 H                     0.092521
     16 H                     0.092460
     17 C                    -0.087664
     18 H                     0.123935
     19 H                     0.092129
     20 H                     0.089076
     21 C                    -0.272073
     22 S                    -0.105792
     23 C                     0.075281
     24 H                     0.206601
     25 C                    -0.120627
     26 S                     0.103253
     27 C                    -0.161702
     28 C                     0.001612
     29 C                    -0.092485
     30 S                     0.042693
     31 C                    -0.158769
     32 C                     0.399853
     33 F                    -0.204733
     34 C                     0.447861
     35 O                    -0.461720
     36 O                    -0.301026
     37 C                    -0.058235
     38 H                     0.121717
     39 H                     0.095354
     40 H                     0.095275
     41 H                     0.218376
     42 H                     0.115078
     43 H                     0.112698
     44 H                     0.207670
  ----------------------------------------
  Sum of atomic charges =     0.000000

                    Cartesian Multipole Moments
 -----------------------------------------------------------------
    Charge (ESU x 10^10)
                 0.0000
    Dipole Moment (Debye)
         X       2.1620      Y       3.3997      Z       2.4808
       Tot       4.7315
    Quadrupole Moments (Debye-Ang)
        XX    -184.4600     XY       9.7960     YY    -192.5138
        XZ     -14.6925     YZ      -8.3068     ZZ    -194.0040

 Total job time:  327.98s(wall), 10714.29s(cpu)
        *  Thank you very much for using Q-Chem.  Have a nice day.  *
