 Q-Chem 5.4, Q-Chem, Inc., Pleasanton, CA (2021)
 Q-Chem 5.4.0 for Intel X86 EM64T Linux

User input:
--------------------------------------------------------------
$molecule
0 1
C	-0.306235	-8.517702	-0.095966
C	0.754415	-7.641575	0.082807
S	-1.833702	-7.638634	-0.348635
C	0.383675	-6.264785	0.017401
H	1.787757	-7.966081	0.259008
C	-1.020885	-6.072714	-0.231913
C	-1.579097	-4.787049	-0.305044
C	1.268082	-5.162801	0.196549
C	0.708796	-3.874817	0.127606
C	-0.696769	-3.683952	-0.124792
O	2.572378	-5.499772	0.397867
O	-2.889532	-4.459055	-0.506103
C	-3.718420	-5.329063	-1.267335
H	-4.635204	-4.755694	-1.502804
H	-4.010790	-6.238095	-0.697471
H	-3.226506	-5.637262	-2.215194
C	3.467415	-4.572261	0.999238
H	4.388648	-5.139743	1.230649
H	3.052323	-4.153131	1.940905
H	3.730819	-3.739531	0.311543
C	-1.064366	-2.306654	-0.187323
S	1.521154	-2.306501	0.257128
C	-0.000000	-1.435185	-0.000000
H	-2.095939	-1.978138	-0.365903
C	0.000000	0.000000	0.000000
S	0.309893	0.850039	1.507541
C	0.847011	2.328006	0.718873
C	0.310046	0.849645	-1.067872
C	0.783331	2.156746	-0.686410
S	0.229416	0.619785	-2.805516
C	0.823328	2.267711	-3.054530
C	1.063278	2.934142	-1.862551
F	1.515925	4.191824	-1.819088
C	0.978337	2.688069	-4.456084
O	0.722535	1.961921	-5.406510
O	1.433229	3.959697	-4.569225
C	1.607467	4.423139	-5.916207
H	1.977475	5.460158	-5.833064
H	0.647388	4.396602	-6.470168
H	2.339490	3.791823	-6.459293
H	1.161798	3.197007	1.306486
H	-0.457736	-9.143623	0.791346
H	-0.158056	-9.149441	-0.979708
H	-0.180205	-1.443175	1.064830
$end

$rem
JOBTYPE		SP
EXCHANGE	HF
CORRELATION	pRIMP2
BASIS		cc-pvtz
METHOD		rimp2
AUX_BASIS	rimp2-cc-pvtz
SOLVENT_METHOD	PCM
PURECART	11111
SYMMETRY	false
MEM_TOTAL	110000
SCF_CONVERGENCE = 6
THRESH=10
GUI = 2
$end

$solvent
dielectric 4.90
$end
--------------------------------------------------------------

             Standard Nuclear Orientation (Angstroms)
    I     Atom           X                Y                Z
 ----------------------------------------------------------------
    1      C      -0.3062350000    -8.5177020000    -0.0959660000
    2      C       0.7544150000    -7.6415750000     0.0828070000
    3      S      -1.8337020000    -7.6386340000    -0.3486350000
    4      C       0.3836750000    -6.2647850000     0.0174010000
    5      H       1.7877570000    -7.9660810000     0.2590080000
    6      C      -1.0208850000    -6.0727140000    -0.2319130000
    7      C      -1.5790970000    -4.7870490000    -0.3050440000
    8      C       1.2680820000    -5.1628010000     0.1965490000
    9      C       0.7087960000    -3.8748170000     0.1276060000
   10      C      -0.6967690000    -3.6839520000    -0.1247920000
   11      O       2.5723780000    -5.4997720000     0.3978670000
   12      O      -2.8895320000    -4.4590550000    -0.5061030000
   13      C      -3.7184200000    -5.3290630000    -1.2673350000
   14      H      -4.6352040000    -4.7556940000    -1.5028040000
   15      H      -4.0107900000    -6.2380950000    -0.6974710000
   16      H      -3.2265060000    -5.6372620000    -2.2151940000
   17      C       3.4674150000    -4.5722610000     0.9992380000
   18      H       4.3886480000    -5.1397430000     1.2306490000
   19      H       3.0523230000    -4.1531310000     1.9409050000
   20      H       3.7308190000    -3.7395310000     0.3115430000
   21      C      -1.0643660000    -2.3066540000    -0.1873230000
   22      S       1.5211540000    -2.3065010000     0.2571280000
   23      C       0.0000000000    -1.4351850000     0.0000000000
   24      H      -2.0959390000    -1.9781380000    -0.3659030000
   25      C       0.0000000000     0.0000000000     0.0000000000
   26      S       0.3098930000     0.8500390000     1.5075410000
   27      C       0.8470110000     2.3280060000     0.7188730000
   28      C       0.3100460000     0.8496450000    -1.0678720000
   29      C       0.7833310000     2.1567460000    -0.6864100000
   30      S       0.2294160000     0.6197850000    -2.8055160000
   31      C       0.8233280000     2.2677110000    -3.0545300000
   32      C       1.0632780000     2.9341420000    -1.8625510000
   33      F       1.5159250000     4.1918240000    -1.8190880000
   34      C       0.9783370000     2.6880690000    -4.4560840000
   35      O       0.7225350000     1.9619210000    -5.4065100000
   36      O       1.4332290000     3.9596970000    -4.5692250000
   37      C       1.6074670000     4.4231390000    -5.9162070000
   38      H       1.9774750000     5.4601580000    -5.8330640000
   39      H       0.6473880000     4.3966020000    -6.4701680000
   40      H       2.3394900000     3.7918230000    -6.4592930000
   41      H       1.1617980000     3.1970070000     1.3064860000
   42      H      -0.4577360000    -9.1436230000     0.7913460000
   43      H      -0.1580560000    -9.1494410000    -0.9797080000
   44      H      -0.1802050000    -1.4431750000     1.0648300000
 ----------------------------------------------------------------

   11   -2755.3385874946      7.40e-07  Convergence criterion met
 Total energy in the final basis set =    -2755.3385874946
        RIMP2         total energy =     -2760.4270162788 a.u.

                    Orbital Energies (a.u.)
 --------------------------------------------------------------

 Alpha MOs
 -- Occupied --
-92.0175 -91.9996 -91.9760 -91.9572 -26.3439 -20.6151 -20.5867 -20.5861
-20.5615 -11.4097 -11.3831 -11.3146 -11.3084 -11.3058 -11.3011 -11.2981
-11.2954 -11.2890 -11.2855 -11.2840 -11.2823 -11.2822 -11.2780 -11.2715
-11.2714 -11.2573 -11.2555 -11.2487 -11.2349  -9.0161  -8.9996  -8.9783
 -8.9598  -6.6969  -6.6963  -6.6957  -6.6806  -6.6799  -6.6788  -6.6594
 -6.6585  -6.6572  -6.6411  -6.6402  -6.6391  -1.6610  -1.4675  -1.4096
 -1.4084  -1.3702  -1.2293  -1.2020  -1.1727  -1.1381  -1.0988  -1.0456
 -1.0441  -1.0250  -1.0031  -0.9959  -0.9631  -0.9587  -0.9478  -0.9403
 -0.8926  -0.8690  -0.8655  -0.8143  -0.7981  -0.7885  -0.7841  -0.7671
 -0.7568  -0.7375  -0.7258  -0.7171  -0.6969  -0.6863  -0.6846  -0.6792
 -0.6741  -0.6602  -0.6556  -0.6480  -0.6332  -0.6300  -0.6191  -0.6146
 -0.6113  -0.5995  -0.5913  -0.5754  -0.5719  -0.5635  -0.5582  -0.5539
 -0.5461  -0.5330  -0.5312  -0.5251  -0.5125  -0.5077  -0.5068  -0.5007
 -0.4853  -0.4820  -0.4758  -0.4741  -0.4710  -0.4686  -0.4603  -0.4456
 -0.4223  -0.3996  -0.3846  -0.3693  -0.3505  -0.3026  -0.2885  -0.2199

          Ground-State Mulliken Net Atomic Charges

     Atom                 Charge (a.u.)
  ----------------------------------------
      1 C                    -0.069947
      2 C                    -0.265163
      3 S                    -0.137601
      4 C                    -0.042106
      5 H                     0.192696
      6 C                    -0.053735
      7 C                     0.225589
      8 C                     0.221514
      9 C                    -0.074356
     10 C                    -0.049059
     11 O                    -0.335191
     12 O                    -0.343408
     13 C                    -0.082522
     14 H                     0.119901
     15 H                     0.091786
     16 H                     0.093111
     17 C                    -0.086510
     18 H                     0.122916
     19 H                     0.091382
     20 H                     0.090537
     21 C                    -0.256750
     22 S                    -0.070939
     23 C                     0.045572
     24 H                     0.205483
     25 C                    -0.079944
     26 S                     0.093977
     27 C                    -0.182959
     28 C                     0.014833
     29 C                    -0.098784
     30 S                     0.013686
     31 C                    -0.156702
     32 C                     0.398481
     33 F                    -0.206597
     34 C                     0.444526
     35 O                    -0.460662
     36 O                    -0.300869
     37 C                    -0.058385
     38 H                     0.121336
     39 H                     0.095136
     40 H                     0.095254
     41 H                     0.219244
     42 H                     0.116459
     43 H                     0.114365
     44 H                     0.184407
  ----------------------------------------
  Sum of atomic charges =     0.000000

                    Cartesian Multipole Moments
 -----------------------------------------------------------------
    Charge (ESU x 10^10)
                -0.0000
    Dipole Moment (Debye)
         X       1.0345      Y       3.4137      Z       3.4499
       Tot       4.9624
    Quadrupole Moments (Debye-Ang)
        XX    -185.9986     XY       1.7232     YY    -179.4539
        XZ       5.3194     YZ      -7.5047     ZZ    -201.5417

 Total job time:  360.46s(wall), 11125.52s(cpu)
        *  Thank you very much for using Q-Chem.  Have a nice day.  *
