 Q-Chem 5.4, Q-Chem, Inc., Pleasanton, CA (2021)
 Q-Chem 5.4.0 for Intel X86 EM64T Linux

User input:
--------------------------------------------------------------
$molecule
0 1
C	-0.014560	-8.517702	-0.320589
C	0.180211	-7.641575	0.737240
S	-0.299553	-7.638634	-1.842356
C	0.114873	-6.264785	0.366488
H	0.368061	-7.966081	1.768528
C	-0.131236	-6.072714	-1.038637
C	-0.253435	-4.787049	-1.588197
C	0.249014	-5.162801	1.258831
C	0.122513	-3.874817	0.709695
C	-0.121043	-3.683952	-0.697430
O	0.505933	-5.499772	2.553323
O	-0.512697	-4.459055	-2.888369
C	-0.080869	-5.329063	-3.927625
H	-0.173159	-4.755694	-4.869656
H	-0.716363	-6.238095	-4.007459
H	0.978072	-5.637262	-3.789565
C	0.246949	-4.572261	3.600064
H	0.344574	-5.139743	4.544887
H	-0.779898	-4.153131	3.532074
H	0.983261	-3.739531	3.612378
C	-0.188009	-2.306654	-1.064246
S	0.278644	-2.306501	1.517360
C	0.000000	-1.435185	0.000000
H	-0.373017	-1.978138	-2.094685
C	0.000000	0.000000	0.000000
S	0.693394	0.581209	1.507541
C	1.897536	1.592607	0.718873
C	0.693330	0.580791	-1.067872
C	1.756758	1.476132	-0.686410
S	0.508573	0.422041	-2.805516
C	1.846879	1.552232	-3.054530
C	2.387897	2.009402	-1.862551
F	3.408741	2.872264	-1.819088
C	2.191300	1.838768	-4.456084
O	1.606694	1.337806	-5.406510
O	3.221062	2.712584	-4.569225
C	3.603677	3.026817	-5.916207
H	4.442623	3.739898	-5.833064
H	2.758956	3.483875	-6.470168
H	3.921969	2.114070	-6.459293
H	2.604650	2.187790	1.306486
H	-0.900177	-9.143623	-0.159475
H	0.866566	-9.149441	-0.483604
H	-1.062246	-1.443175	0.194856
$end

$rem
JOBTYPE		SP
EXCHANGE	HF
CORRELATION	pRIMP2
BASIS		cc-pvtz
METHOD		rimp2
AUX_BASIS	rimp2-cc-pvtz
SOLVENT_METHOD	PCM
PURECART	11111
SYMMETRY	false
MEM_TOTAL	110000
SCF_CONVERGENCE = 6
THRESH=10
GUI = 2
$end

$solvent
dielectric 4.90
$end
--------------------------------------------------------------

             Standard Nuclear Orientation (Angstroms)
    I     Atom           X                Y                Z
 ----------------------------------------------------------------
    1      C      -0.0145600000    -8.5177020000    -0.3205890000
    2      C       0.1802110000    -7.6415750000     0.7372400000
    3      S      -0.2995530000    -7.6386340000    -1.8423560000
    4      C       0.1148730000    -6.2647850000     0.3664880000
    5      H       0.3680610000    -7.9660810000     1.7685280000
    6      C      -0.1312360000    -6.0727140000    -1.0386370000
    7      C      -0.2534350000    -4.7870490000    -1.5881970000
    8      C       0.2490140000    -5.1628010000     1.2588310000
    9      C       0.1225130000    -3.8748170000     0.7096950000
   10      C      -0.1210430000    -3.6839520000    -0.6974300000
   11      O       0.5059330000    -5.4997720000     2.5533230000
   12      O      -0.5126970000    -4.4590550000    -2.8883690000
   13      C      -0.0808690000    -5.3290630000    -3.9276250000
   14      H      -0.1731590000    -4.7556940000    -4.8696560000
   15      H      -0.7163630000    -6.2380950000    -4.0074590000
   16      H       0.9780720000    -5.6372620000    -3.7895650000
   17      C       0.2469490000    -4.5722610000     3.6000640000
   18      H       0.3445740000    -5.1397430000     4.5448870000
   19      H      -0.7798980000    -4.1531310000     3.5320740000
   20      H       0.9832610000    -3.7395310000     3.6123780000
   21      C      -0.1880090000    -2.3066540000    -1.0642460000
   22      S       0.2786440000    -2.3065010000     1.5173600000
   23      C       0.0000000000    -1.4351850000     0.0000000000
   24      H      -0.3730170000    -1.9781380000    -2.0946850000
   25      C       0.0000000000     0.0000000000     0.0000000000
   26      S       0.6933940000     0.5812090000     1.5075410000
   27      C       1.8975360000     1.5926070000     0.7188730000
   28      C       0.6933300000     0.5807910000    -1.0678720000
   29      C       1.7567580000     1.4761320000    -0.6864100000
   30      S       0.5085730000     0.4220410000    -2.8055160000
   31      C       1.8468790000     1.5522320000    -3.0545300000
   32      C       2.3878970000     2.0094020000    -1.8625510000
   33      F       3.4087410000     2.8722640000    -1.8190880000
   34      C       2.1913000000     1.8387680000    -4.4560840000
   35      O       1.6066940000     1.3378060000    -5.4065100000
   36      O       3.2210620000     2.7125840000    -4.5692250000
   37      C       3.6036770000     3.0268170000    -5.9162070000
   38      H       4.4426230000     3.7398980000    -5.8330640000
   39      H       2.7589560000     3.4838750000    -6.4701680000
   40      H       3.9219690000     2.1140700000    -6.4592930000
   41      H       2.6046500000     2.1877900000     1.3064860000
   42      H      -0.9001770000    -9.1436230000    -0.1594750000
   43      H       0.8665660000    -9.1494410000    -0.4836040000
   44      H      -1.0622460000    -1.4431750000     0.1948560000
 ----------------------------------------------------------------

   11   -2755.2813372125      8.46e-07  Convergence criterion met
 Total energy in the final basis set =    -2755.2813372125
        RIMP2         total energy =     -2760.3868965778 a.u.

                    Orbital Energies (a.u.)
 --------------------------------------------------------------

 Alpha MOs
 -- Occupied --
-92.0133 -92.0063 -91.9787 -91.9550 -26.3456 -20.6160 -20.5859 -20.5851
-20.5625 -11.4110 -11.3860 -11.3232 -11.3101 -11.3079 -11.3037 -11.2992
-11.2897 -11.2875 -11.2840 -11.2829 -11.2814 -11.2812 -11.2747 -11.2732
-11.2681 -11.2557 -11.2521 -11.2466 -11.2297  -9.0129  -9.0063  -8.9809
 -8.9577  -6.6936  -6.6928  -6.6925  -6.6872  -6.6865  -6.6855  -6.6619
 -6.6611  -6.6597  -6.6389  -6.6380  -6.6370  -1.6627  -1.4685  -1.4087
 -1.4075  -1.3712  -1.2366  -1.2011  -1.1711  -1.1402  -1.0980  -1.0482
 -1.0445  -1.0272  -1.0022  -0.9955  -0.9651  -0.9598  -0.9469  -0.9404
 -0.8930  -0.8716  -0.8614  -0.8138  -0.7997  -0.7907  -0.7812  -0.7646
 -0.7581  -0.7368  -0.7274  -0.7149  -0.6974  -0.6906  -0.6857  -0.6808
 -0.6750  -0.6618  -0.6556  -0.6474  -0.6389  -0.6305  -0.6171  -0.6132
 -0.6113  -0.6017  -0.5914  -0.5792  -0.5693  -0.5660  -0.5575  -0.5557
 -0.5378  -0.5354  -0.5306  -0.5258  -0.5142  -0.5092  -0.5068  -0.4988
 -0.4873  -0.4817  -0.4766  -0.4745  -0.4692  -0.4645  -0.4531  -0.4439
 -0.4313  -0.3907  -0.3838  -0.3684  -0.3492  -0.3052  -0.2860  -0.2111

          Ground-State Mulliken Net Atomic Charges

     Atom                 Charge (a.u.)
  ----------------------------------------
      1 C                    -0.068898
      2 C                    -0.281256
      3 S                    -0.142825
      4 C                    -0.041692
      5 H                     0.190580
      6 C                    -0.056693
      7 C                     0.229393
      8 C                     0.219945
      9 C                    -0.072664
     10 C                    -0.060482
     11 O                    -0.335242
     12 O                    -0.344879
     13 C                    -0.083041
     14 H                     0.120553
     15 H                     0.092418
     16 H                     0.092565
     17 C                    -0.088419
     18 H                     0.123821
     19 H                     0.091677
     20 H                     0.088755
     21 C                    -0.238062
     22 S                    -0.097795
     23 C                     0.046889
     24 H                     0.201341
     25 C                    -0.120908
     26 S                     0.091416
     27 C                    -0.155140
     28 C                     0.047903
     29 C                    -0.115480
     30 S                     0.033945
     31 C                    -0.161276
     32 C                     0.404373
     33 F                    -0.204862
     34 C                     0.448101
     35 O                    -0.461773
     36 O                    -0.301074
     37 C                    -0.058318
     38 H                     0.121707
     39 H                     0.095232
     40 H                     0.095379
     41 H                     0.220295
     42 H                     0.114463
     43 H                     0.112080
     44 H                     0.207950
  ----------------------------------------
  Sum of atomic charges =     0.000000

                    Cartesian Multipole Moments
 -----------------------------------------------------------------
    Charge (ESU x 10^10)
                 0.0000
    Dipole Moment (Debye)
         X       2.2340      Y       3.7441      Z       2.8929
       Tot       5.2324
    Quadrupole Moments (Debye-Ang)
        XX    -191.2121     XY       7.9236     YY    -195.0457
        XZ      -8.4569     YZ      -8.3579     ZZ    -187.0029

 Total job time:  337.19s(wall), 10806.06s(cpu)
        *  Thank you very much for using Q-Chem.  Have a nice day.  *
