 Q-Chem 5.4, Q-Chem, Inc., Pleasanton, CA (2021)
 Q-Chem 5.4.0 for Intel X86 EM64T Linux

User input:
--------------------------------------------------------------
$molecule
0 1
C	0.070009	-8.517702	0.313191
C	-0.305494	-7.641575	-0.694746
S	0.614924	-7.638634	1.762350
C	-0.176768	-6.264785	-0.340973
H	-0.669571	-7.966081	-1.677747
C	0.309600	-6.072714	1.000069
C	0.525372	-4.787049	1.520060
C	-0.463825	-5.162801	-1.196466
C	-0.243888	-3.874817	-0.677639
C	0.240312	-3.683952	0.665815
O	-0.941626	-5.499772	-2.426678
O	1.006468	-4.459055	2.755460
C	0.761666	-5.329063	3.853913
H	1.016135	-4.755694	4.765607
H	1.401368	-6.238095	3.822182
H	-0.305161	-5.637262	3.901833
C	-0.868342	-4.572261	-3.502489
H	-1.128551	-5.139743	-4.416005
H	0.154712	-4.153131	-3.613841
H	-1.595605	-3.739531	-3.386756
C	0.369957	-2.306654	1.015430
S	-0.537898	-2.306501	-1.445922
C	-0.000000	-1.435185	-0.000000
H	0.731088	-1.978138	1.998088
C	0.000000	0.000000	0.000000
S	0.581934	0.692785	1.507541
C	1.592155	1.897915	0.718873
C	0.581944	0.692363	-1.067872
C	1.473741	1.758764	-0.686410
S	0.427560	0.503942	-2.805516
C	1.549278	1.849357	-3.054530
C	2.002690	2.393529	-1.862551
F	2.858191	3.420549	-1.819088
C	1.838710	2.191348	-4.456084
O	1.349977	1.596481	-5.406510
O	2.701091	3.230705	-4.569225
C	3.023327	3.606605	-5.916207
H	3.725703	4.454534	-5.833064
H	2.112072	3.910035	-6.470168
H	3.495281	2.762996	-6.459293
H	2.185174	2.606846	1.306486
H	0.914194	-9.143623	0.000738
H	-0.769424	-9.149441	0.626735
H	1.012272	-1.443175	-0.376353
$end

$rem
JOBTYPE		SP
EXCHANGE	HF
CORRELATION	pRIMP2
BASIS		cc-pvtz
METHOD		rimp2
AUX_BASIS	rimp2-cc-pvtz
SOLVENT_METHOD	PCM
PURECART	11111
SYMMETRY	false
MEM_TOTAL	110000
SCF_CONVERGENCE = 6
THRESH=10
GUI = 2
$end

$solvent
dielectric 4.90
$end
--------------------------------------------------------------

             Standard Nuclear Orientation (Angstroms)
    I     Atom           X                Y                Z
 ----------------------------------------------------------------
    1      C       0.0700090000    -8.5177020000     0.3131910000
    2      C      -0.3054940000    -7.6415750000    -0.6947460000
    3      S       0.6149240000    -7.6386340000     1.7623500000
    4      C      -0.1767680000    -6.2647850000    -0.3409730000
    5      H      -0.6695710000    -7.9660810000    -1.6777470000
    6      C       0.3096000000    -6.0727140000     1.0000690000
    7      C       0.5253720000    -4.7870490000     1.5200600000
    8      C      -0.4638250000    -5.1628010000    -1.1964660000
    9      C      -0.2438880000    -3.8748170000    -0.6776390000
   10      C       0.2403120000    -3.6839520000     0.6658150000
   11      O      -0.9416260000    -5.4997720000    -2.4266780000
   12      O       1.0064680000    -4.4590550000     2.7554600000
   13      C       0.7616660000    -5.3290630000     3.8539130000
   14      H       1.0161350000    -4.7556940000     4.7656070000
   15      H       1.4013680000    -6.2380950000     3.8221820000
   16      H      -0.3051610000    -5.6372620000     3.9018330000
   17      C      -0.8683420000    -4.5722610000    -3.5024890000
   18      H      -1.1285510000    -5.1397430000    -4.4160050000
   19      H       0.1547120000    -4.1531310000    -3.6138410000
   20      H      -1.5956050000    -3.7395310000    -3.3867560000
   21      C       0.3699570000    -2.3066540000     1.0154300000
   22      S      -0.5378980000    -2.3065010000    -1.4459220000
   23      C       0.0000000000    -1.4351850000     0.0000000000
   24      H       0.7310880000    -1.9781380000     1.9980880000
   25      C       0.0000000000     0.0000000000     0.0000000000
   26      S       0.5819340000     0.6927850000     1.5075410000
   27      C       1.5921550000     1.8979150000     0.7188730000
   28      C       0.5819440000     0.6923630000    -1.0678720000
   29      C       1.4737410000     1.7587640000    -0.6864100000
   30      S       0.4275600000     0.5039420000    -2.8055160000
   31      C       1.5492780000     1.8493570000    -3.0545300000
   32      C       2.0026900000     2.3935290000    -1.8625510000
   33      F       2.8581910000     3.4205490000    -1.8190880000
   34      C       1.8387100000     2.1913480000    -4.4560840000
   35      O       1.3499770000     1.5964810000    -5.4065100000
   36      O       2.7010910000     3.2307050000    -4.5692250000
   37      C       3.0233270000     3.6066050000    -5.9162070000
   38      H       3.7257030000     4.4545340000    -5.8330640000
   39      H       2.1120720000     3.9100350000    -6.4701680000
   40      H       3.4952810000     2.7629960000    -6.4592930000
   41      H       2.1851740000     2.6068460000     1.3064860000
   42      H       0.9141940000    -9.1436230000     0.0007380000
   43      H      -0.7694240000    -9.1494410000     0.6267350000
   44      H       1.0122720000    -1.4431750000    -0.3763530000
 ----------------------------------------------------------------

   11   -2755.3107404627      7.76e-07  Convergence criterion met
 Total energy in the final basis set =    -2755.3107404627
        RIMP2         total energy =     -2760.4118577111 a.u.

                    Orbital Energies (a.u.)
 --------------------------------------------------------------

 Alpha MOs
 -- Occupied --
-92.0151 -92.0005 -91.9763 -91.9581 -26.3436 -20.6154 -20.5875 -20.5865
-20.5618 -11.4100 -11.3825 -11.3108 -11.3092 -11.3071 -11.3004 -11.2986
-11.2981 -11.2892 -11.2868 -11.2836 -11.2835 -11.2831 -11.2816 -11.2726
-11.2724 -11.2580 -11.2574 -11.2495 -11.2362  -9.0140  -9.0005  -8.9790
 -8.9607  -6.6948  -6.6941  -6.6937  -6.6815  -6.6808  -6.6796  -6.6601
 -6.6592  -6.6579  -6.6419  -6.6410  -6.6400  -1.6607  -1.4678  -1.4102
 -1.4090  -1.3705  -1.2362  -1.2012  -1.1738  -1.1393  -1.0998  -1.0483
 -1.0450  -1.0259  -1.0026  -0.9965  -0.9654  -0.9562  -0.9491  -0.9422
 -0.8933  -0.8710  -0.8613  -0.8176  -0.7930  -0.7886  -0.7834  -0.7682
 -0.7575  -0.7362  -0.7257  -0.7102  -0.6988  -0.6948  -0.6852  -0.6816
 -0.6744  -0.6666  -0.6554  -0.6485  -0.6369  -0.6310  -0.6198  -0.6153
 -0.6108  -0.6008  -0.5939  -0.5775  -0.5703  -0.5653  -0.5590  -0.5557
 -0.5487  -0.5327  -0.5293  -0.5257  -0.5154  -0.5110  -0.5077  -0.4996
 -0.4848  -0.4804  -0.4778  -0.4734  -0.4710  -0.4641  -0.4589  -0.4462
 -0.4312  -0.3978  -0.3795  -0.3713  -0.3506  -0.3034  -0.2858  -0.2151

          Ground-State Mulliken Net Atomic Charges

     Atom                 Charge (a.u.)
  ----------------------------------------
      1 C                    -0.069964
      2 C                    -0.261811
      3 S                    -0.136661
      4 C                    -0.044276
      5 H                     0.193358
      6 C                    -0.050080
      7 C                     0.221096
      8 C                     0.225344
      9 C                    -0.064421
     10 C                    -0.044989
     11 O                    -0.334974
     12 O                    -0.344366
     13 C                    -0.082721
     14 H                     0.119702
     15 H                     0.092315
     16 H                     0.093002
     17 C                    -0.087965
     18 H                     0.123588
     19 H                     0.092847
     20 H                     0.090495
     21 C                    -0.283878
     22 S                    -0.097977
     23 C                     0.071227
     24 H                     0.200904
     25 C                    -0.050082
     26 S                     0.087055
     27 C                    -0.191438
     28 C                    -0.002054
     29 C                    -0.109674
     30 S                     0.020981
     31 C                    -0.160820
     32 C                     0.403258
     33 F                    -0.206776
     34 C                     0.446571
     35 O                    -0.460881
     36 O                    -0.300862
     37 C                    -0.058540
     38 H                     0.121508
     39 H                     0.095276
     40 H                     0.095123
     41 H                     0.218259
     42 H                     0.117133
     43 H                     0.114767
     44 H                     0.201399
  ----------------------------------------
  Sum of atomic charges =     0.000000

                    Cartesian Multipole Moments
 -----------------------------------------------------------------
    Charge (ESU x 10^10)
                 0.0000
    Dipole Moment (Debye)
         X       2.3775      Y       2.2291      Z       2.4753
       Tot       4.0925
    Quadrupole Moments (Debye-Ang)
        XX    -195.4450     XY       9.1139     YY    -182.2788
        XZ      -4.5547     YZ      -2.0147     ZZ    -186.9532

 Total job time:  345.17s(wall), 10450.75s(cpu)
        *  Thank you very much for using Q-Chem.  Have a nice day.  *
