 Q-Chem 5.4, Q-Chem, Inc., Pleasanton, CA (2021)
 Q-Chem 5.4.0 for Intel X86 EM64T Linux

User input:
--------------------------------------------------------------
$molecule
0 1
C	0.236226	-8.517702	-0.217225
C	-0.448921	-7.641575	0.611939
S	1.218777	-7.638634	-1.413715
C	-0.206907	-6.264785	0.323572
H	-1.118185	-7.966081	1.418739
C	0.711285	-6.072714	-0.768156
C	1.053725	-4.787049	-1.215016
C	-0.804258	-5.162801	0.999917
C	-0.464908	-3.874817	0.550033
C	0.456457	-3.683952	-0.541024
O	-1.630752	-5.499772	2.028811
O	1.883064	-4.459055	-2.249357
C	2.956754	-5.329063	-2.586579
H	3.619069	-4.755694	-3.262802
H	2.609423	-6.238095	-3.124711
H	3.531667	-5.637262	-1.686639
C	-2.599073	-4.572261	2.503251
H	-3.260097	-5.139743	3.185356
H	-3.207034	-4.153131	1.672937
H	-2.135214	-3.739531	3.075213
C	0.694410	-2.306654	-0.828107
S	-0.983256	-2.306501	1.188794
C	-0.000000	-1.435185	-0.000000
H	1.364851	-1.978138	-1.632185
C	0.000000	0.000000	0.000000
S	0.581934	0.692785	1.507541
C	1.592155	1.897915	0.718873
C	0.581944	0.692363	-1.067872
C	1.473741	1.758764	-0.686410
S	0.427560	0.503942	-2.805516
C	1.549278	1.849357	-3.054530
C	2.002690	2.393529	-1.862551
F	2.858191	3.420549	-1.819088
C	1.838710	2.191348	-4.456084
O	1.349977	1.596481	-5.406510
O	2.701091	3.230705	-4.569225
C	3.023327	3.606605	-5.916207
H	3.725703	4.454534	-5.833064
H	2.112072	3.910035	-6.470168
H	3.495281	2.762996	-6.459293
H	2.185174	2.606846	1.306486
H	-0.456457	-9.143623	-0.792084
H	0.927480	-9.149441	0.352973
H	-0.832067	-1.443175	-0.688477
$end

$rem
JOBTYPE		SP
EXCHANGE	HF
CORRELATION	pRIMP2
BASIS		cc-pvtz
METHOD		rimp2
AUX_BASIS	rimp2-cc-pvtz
SOLVENT_METHOD	PCM
PURECART	11111
SYMMETRY	false
MEM_TOTAL	110000
SCF_CONVERGENCE = 6
THRESH=10
GUI = 2
$end

$solvent
dielectric 4.90
$end
--------------------------------------------------------------

             Standard Nuclear Orientation (Angstroms)
    I     Atom           X                Y                Z
 ----------------------------------------------------------------
    1      C       0.2362260000    -8.5177020000    -0.2172250000
    2      C      -0.4489210000    -7.6415750000     0.6119390000
    3      S       1.2187770000    -7.6386340000    -1.4137150000
    4      C      -0.2069070000    -6.2647850000     0.3235720000
    5      H      -1.1181850000    -7.9660810000     1.4187390000
    6      C       0.7112850000    -6.0727140000    -0.7681560000
    7      C       1.0537250000    -4.7870490000    -1.2150160000
    8      C      -0.8042580000    -5.1628010000     0.9999170000
    9      C      -0.4649080000    -3.8748170000     0.5500330000
   10      C       0.4564570000    -3.6839520000    -0.5410240000
   11      O      -1.6307520000    -5.4997720000     2.0288110000
   12      O       1.8830640000    -4.4590550000    -2.2493570000
   13      C       2.9567540000    -5.3290630000    -2.5865790000
   14      H       3.6190690000    -4.7556940000    -3.2628020000
   15      H       2.6094230000    -6.2380950000    -3.1247110000
   16      H       3.5316670000    -5.6372620000    -1.6866390000
   17      C      -2.5990730000    -4.5722610000     2.5032510000
   18      H      -3.2600970000    -5.1397430000     3.1853560000
   19      H      -3.2070340000    -4.1531310000     1.6729370000
   20      H      -2.1352140000    -3.7395310000     3.0752130000
   21      C       0.6944100000    -2.3066540000    -0.8281070000
   22      S      -0.9832560000    -2.3065010000     1.1887940000
   23      C       0.0000000000    -1.4351850000     0.0000000000
   24      H       1.3648510000    -1.9781380000    -1.6321850000
   25      C       0.0000000000     0.0000000000     0.0000000000
   26      S       0.5819340000     0.6927850000     1.5075410000
   27      C       1.5921550000     1.8979150000     0.7188730000
   28      C       0.5819440000     0.6923630000    -1.0678720000
   29      C       1.4737410000     1.7587640000    -0.6864100000
   30      S       0.4275600000     0.5039420000    -2.8055160000
   31      C       1.5492780000     1.8493570000    -3.0545300000
   32      C       2.0026900000     2.3935290000    -1.8625510000
   33      F       2.8581910000     3.4205490000    -1.8190880000
   34      C       1.8387100000     2.1913480000    -4.4560840000
   35      O       1.3499770000     1.5964810000    -5.4065100000
   36      O       2.7010910000     3.2307050000    -4.5692250000
   37      C       3.0233270000     3.6066050000    -5.9162070000
   38      H       3.7257030000     4.4545340000    -5.8330640000
   39      H       2.1120720000     3.9100350000    -6.4701680000
   40      H       3.4952810000     2.7629960000    -6.4592930000
   41      H       2.1851740000     2.6068460000     1.3064860000
   42      H      -0.4564570000    -9.1436230000    -0.7920840000
   43      H       0.9274800000    -9.1494410000     0.3529730000
   44      H      -0.8320670000    -1.4431750000    -0.6884770000
 ----------------------------------------------------------------

   11   -2755.3140636256      7.29e-07  Convergence criterion met
 Total energy in the final basis set =    -2755.3140636256
        RIMP2         total energy =     -2760.4117878470 a.u.

                    Orbital Energies (a.u.)
 --------------------------------------------------------------

 Alpha MOs
 -- Occupied --
-92.0104 -92.0042 -91.9776 -91.9569 -26.3455 -20.6159 -20.5866 -20.5862
-20.5624 -11.4108 -11.3855 -11.3182 -11.3087 -11.3086 -11.3059 -11.2995
-11.2913 -11.2896 -11.2875 -11.2841 -11.2827 -11.2822 -11.2775 -11.2721
-11.2709 -11.2572 -11.2553 -11.2484 -11.2340  -9.0097  -9.0042  -8.9797
 -8.9595  -6.6905  -6.6897  -6.6893  -6.6852  -6.6844  -6.6834  -6.6609
 -6.6600  -6.6588  -6.6408  -6.6398  -6.6388  -1.6625  -1.4684  -1.4096
 -1.4082  -1.3711  -1.2340  -1.2018  -1.1724  -1.1389  -1.0998  -1.0481
 -1.0451  -1.0252  -1.0023  -0.9966  -0.9637  -0.9592  -0.9482  -0.9416
 -0.8929  -0.8716  -0.8627  -0.8118  -0.7996  -0.7907  -0.7829  -0.7663
 -0.7589  -0.7358  -0.7273  -0.7113  -0.6996  -0.6941  -0.6858  -0.6805
 -0.6749  -0.6644  -0.6555  -0.6480  -0.6372  -0.6303  -0.6188  -0.6145
 -0.6119  -0.6006  -0.5928  -0.5777  -0.5717  -0.5660  -0.5575  -0.5562
 -0.5414  -0.5322  -0.5288  -0.5258  -0.5121  -0.5098  -0.5069  -0.5009
 -0.4855  -0.4819  -0.4769  -0.4746  -0.4693  -0.4657  -0.4589  -0.4454
 -0.4267  -0.3965  -0.3831  -0.3688  -0.3518  -0.3037  -0.2880  -0.2166

          Ground-State Mulliken Net Atomic Charges

     Atom                 Charge (a.u.)
  ----------------------------------------
      1 C                    -0.069667
      2 C                    -0.268680
      3 S                    -0.138624
      4 C                    -0.044536
      5 H                     0.192289
      6 C                    -0.053979
      7 C                     0.224553
      8 C                     0.227879
      9 C                    -0.070412
     10 C                    -0.045041
     11 O                    -0.335155
     12 O                    -0.343206
     13 C                    -0.082839
     14 H                     0.120112
     15 H                     0.092274
     16 H                     0.092532
     17 C                    -0.087235
     18 H                     0.123893
     19 H                     0.092314
     20 H                     0.089635
     21 C                    -0.299632
     22 S                    -0.095254
     23 C                     0.092500
     24 H                     0.211729
     25 C                    -0.093280
     26 S                     0.100137
     27 C                    -0.172712
     28 C                    -0.031023
     29 C                    -0.087034
     30 S                     0.030564
     31 C                    -0.154520
     32 C                     0.399699
     33 F                    -0.205329
     34 C                     0.446060
     35 O                    -0.461131
     36 O                    -0.301013
     37 C                    -0.058294
     38 H                     0.121656
     39 H                     0.095394
     40 H                     0.095262
     41 H                     0.217068
     42 H                     0.116191
     43 H                     0.113861
     44 H                     0.202995
  ----------------------------------------
  Sum of atomic charges =     0.000000

                    Cartesian Multipole Moments
 -----------------------------------------------------------------
    Charge (ESU x 10^10)
                -0.0000
    Dipole Moment (Debye)
         X       1.6221      Y       3.1180      Z       2.3530
       Tot       4.2296
    Quadrupole Moments (Debye-Ang)
        XX    -181.3711     XY      10.7130     YY    -185.2235
        XZ     -13.0401     YZ      -8.6841     ZZ    -200.7763

 Total job time:  347.42s(wall), 10652.65s(cpu)
        *  Thank you very much for using Q-Chem.  Have a nice day.  *
