 Q-Chem 5.4, Q-Chem, Inc., Pleasanton, CA (2021)
 Q-Chem 5.4.0 for Intel X86 EM64T Linux

User input:
--------------------------------------------------------------
$molecule
0 1
C	0.270358	-8.517702	-0.172904
C	-0.548363	-7.641575	0.524688
S	1.445750	-7.638634	-1.180599
C	-0.259951	-6.264785	0.282727
H	-1.347559	-7.966081	1.203014
C	0.833868	-6.072714	-0.632972
C	1.248701	-4.787049	-1.013580
C	-0.965673	-5.162801	0.845068
C	-0.553357	-3.874817	0.460946
C	0.543470	-3.683952	-0.453541
O	-1.958276	-5.499772	1.714812
O	2.245053	-4.459055	-1.888193
C	3.360989	-5.329063	-2.033848
H	4.130667	-4.755694	-2.584788
H	3.112380	-6.238095	-2.624118
H	3.770895	-5.637262	-1.047748
C	-2.994272	-4.572261	2.013896
H	-3.763700	-5.139743	2.570853
H	-3.448815	-4.153131	1.090625
H	-2.636780	-3.739531	2.657717
C	0.827659	-2.306654	-0.694943
S	-1.174750	-2.306501	0.999993
C	0.000000	-1.435185	0.000000
H	1.627541	-1.978138	-1.370385
C	0.000000	0.000000	0.000000
S	0.452792	0.783312	1.507541
C	1.238397	2.145556	0.718873
C	0.452875	0.782898	-1.067872
C	1.145945	1.987956	-0.686410
S	0.333556	0.570531	-2.805516
C	1.204604	2.090290	-3.054530
C	1.556633	2.704929	-1.862551
F	2.220797	3.864903	-1.819088
C	1.430252	2.477345	-4.456084
O	1.052242	1.806648	-5.406510
O	2.099050	3.650663	-4.569225
C	2.351116	4.076808	-5.916207
H	2.895579	5.033821	-5.833064
H	1.401015	4.217390	-6.470168
H	2.962391	3.327969	-6.459293
H	1.699302	2.946693	1.306486
H	-0.311979	-9.143623	-0.859314
H	0.852097	-9.149441	0.508666
H	-0.699874	-1.443175	-0.822504
$end

$rem
JOBTYPE		SP
EXCHANGE	HF
CORRELATION	pRIMP2
BASIS		cc-pvtz
METHOD		rimp2
AUX_BASIS	rimp2-cc-pvtz
SOLVENT_METHOD	PCM
PURECART	11111
SYMMETRY	false
MEM_TOTAL	110000
SCF_CONVERGENCE = 6
THRESH=10
GUI = 2
$end

$solvent
dielectric 4.90
$end
--------------------------------------------------------------

             Standard Nuclear Orientation (Angstroms)
    I     Atom           X                Y                Z
 ----------------------------------------------------------------
    1      C       0.2703580000    -8.5177020000    -0.1729040000
    2      C      -0.5483630000    -7.6415750000     0.5246880000
    3      S       1.4457500000    -7.6386340000    -1.1805990000
    4      C      -0.2599510000    -6.2647850000     0.2827270000
    5      H      -1.3475590000    -7.9660810000     1.2030140000
    6      C       0.8338680000    -6.0727140000    -0.6329720000
    7      C       1.2487010000    -4.7870490000    -1.0135800000
    8      C      -0.9656730000    -5.1628010000     0.8450680000
    9      C      -0.5533570000    -3.8748170000     0.4609460000
   10      C       0.5434700000    -3.6839520000    -0.4535410000
   11      O      -1.9582760000    -5.4997720000     1.7148120000
   12      O       2.2450530000    -4.4590550000    -1.8881930000
   13      C       3.3609890000    -5.3290630000    -2.0338480000
   14      H       4.1306670000    -4.7556940000    -2.5847880000
   15      H       3.1123800000    -6.2380950000    -2.6241180000
   16      H       3.7708950000    -5.6372620000    -1.0477480000
   17      C      -2.9942720000    -4.5722610000     2.0138960000
   18      H      -3.7637000000    -5.1397430000     2.5708530000
   19      H      -3.4488150000    -4.1531310000     1.0906250000
   20      H      -2.6367800000    -3.7395310000     2.6577170000
   21      C       0.8276590000    -2.3066540000    -0.6949430000
   22      S      -1.1747500000    -2.3065010000     0.9999930000
   23      C       0.0000000000    -1.4351850000     0.0000000000
   24      H       1.6275410000    -1.9781380000    -1.3703850000
   25      C       0.0000000000     0.0000000000     0.0000000000
   26      S       0.4527920000     0.7833120000     1.5075410000
   27      C       1.2383970000     2.1455560000     0.7188730000
   28      C       0.4528750000     0.7828980000    -1.0678720000
   29      C       1.1459450000     1.9879560000    -0.6864100000
   30      S       0.3335560000     0.5705310000    -2.8055160000
   31      C       1.2046040000     2.0902900000    -3.0545300000
   32      C       1.5566330000     2.7049290000    -1.8625510000
   33      F       2.2207970000     3.8649030000    -1.8190880000
   34      C       1.4302520000     2.4773450000    -4.4560840000
   35      O       1.0522420000     1.8066480000    -5.4065100000
   36      O       2.0990500000     3.6506630000    -4.5692250000
   37      C       2.3511160000     4.0768080000    -5.9162070000
   38      H       2.8955790000     5.0338210000    -5.8330640000
   39      H       1.4010150000     4.2173900000    -6.4701680000
   40      H       2.9623910000     3.3279690000    -6.4592930000
   41      H       1.6993020000     2.9466930000     1.3064860000
   42      H      -0.3119790000    -9.1436230000    -0.8593140000
   43      H       0.8520970000    -9.1494410000     0.5086660000
   44      H      -0.6998740000    -1.4431750000    -0.8225040000
 ----------------------------------------------------------------

   11   -2755.3303220262      7.14e-07  Convergence criterion met
 Total energy in the final basis set =    -2755.3303220262
        RIMP2         total energy =     -2760.4235356094 a.u.

                    Orbital Energies (a.u.)
 --------------------------------------------------------------

 Alpha MOs
 -- Occupied --
-92.0109 -92.0022 -91.9777 -91.9575 -26.3450 -20.6156 -20.5868 -20.5866
-20.5622 -11.4105 -11.3847 -11.3142 -11.3088 -11.3067 -11.3059 -11.2991
-11.2968 -11.2894 -11.2866 -11.2843 -11.2828 -11.2824 -11.2793 -11.2723
-11.2720 -11.2577 -11.2568 -11.2490 -11.2356  -9.0101  -9.0022  -8.9798
 -8.9602  -6.6908  -6.6901  -6.6897  -6.6832  -6.6825  -6.6814  -6.6610
 -6.6601  -6.6589  -6.6414  -6.6405  -6.6394  -1.6619  -1.4681  -1.4100
 -1.4085  -1.3709  -1.2318  -1.2023  -1.1730  -1.1380  -1.1003  -1.0472
 -1.0455  -1.0243  -1.0028  -0.9970  -0.9630  -0.9591  -0.9484  -0.9416
 -0.8932  -0.8713  -0.8637  -0.8115  -0.7990  -0.7904  -0.7836  -0.7671
 -0.7588  -0.7357  -0.7267  -0.7105  -0.7001  -0.6946  -0.6856  -0.6802
 -0.6747  -0.6646  -0.6556  -0.6483  -0.6364  -0.6303  -0.6194  -0.6146
 -0.6118  -0.5999  -0.5929  -0.5775  -0.5715  -0.5659  -0.5578  -0.5554
 -0.5441  -0.5319  -0.5294  -0.5262  -0.5125  -0.5091  -0.5071  -0.5014
 -0.4850  -0.4819  -0.4765  -0.4746  -0.4692  -0.4672  -0.4601  -0.4459
 -0.4257  -0.3980  -0.3840  -0.3694  -0.3515  -0.3027  -0.2886  -0.2185

          Ground-State Mulliken Net Atomic Charges

     Atom                 Charge (a.u.)
  ----------------------------------------
      1 C                    -0.070061
      2 C                    -0.263989
      3 S                    -0.136581
      4 C                    -0.045469
      5 H                     0.192886
      6 C                    -0.053508
      7 C                     0.222164
      8 C                     0.229884
      9 C                    -0.075189
     10 C                    -0.037798
     11 O                    -0.335068
     12 O                    -0.342979
     13 C                    -0.082847
     14 H                     0.120105
     15 H                     0.092319
     16 H                     0.092505
     17 C                    -0.086998
     18 H                     0.123664
     19 H                     0.092371
     20 H                     0.089873
     21 C                    -0.299365
     22 S                    -0.081738
     23 C                     0.085242
     24 H                     0.211568
     25 C                    -0.060731
     26 S                     0.095268
     27 C                    -0.179697
     28 C                    -0.050149
     29 C                    -0.087507
     30 S                     0.021809
     31 C                    -0.155465
     32 C                     0.398062
     33 F                    -0.205624
     34 C                     0.445819
     35 O                    -0.460863
     36 O                    -0.300961
     37 C                    -0.058345
     38 H                     0.121627
     39 H                     0.095303
     40 H                     0.095246
     41 H                     0.216963
     42 H                     0.116873
     43 H                     0.114393
     44 H                     0.196990
  ----------------------------------------
  Sum of atomic charges =     0.000000

                    Cartesian Multipole Moments
 -----------------------------------------------------------------
    Charge (ESU x 10^10)
                 0.0000
    Dipole Moment (Debye)
         X       1.0851      Y       2.9408      Z       2.3914
       Tot       3.9427
    Quadrupole Moments (Debye-Ang)
        XX    -181.6487     XY      10.0276     YY    -180.2156
        XZ     -10.0137     YZ      -9.0501     ZZ    -203.6760

 Total job time:  364.62s(wall), 10551.23s(cpu)
        *  Thank you very much for using Q-Chem.  Have a nice day.  *
