 Q-Chem 5.4, Q-Chem, Inc., Pleasanton, CA (2021)
 Q-Chem 5.4.0 for Intel X86 EM64T Linux

User input:
--------------------------------------------------------------
$molecule
0 1
C	-0.147685	-8.517702	0.284919
C	0.212552	-7.641575	-0.728574
S	-0.661757	-7.638634	1.745304
C	0.083761	-6.264785	-0.374824
H	0.565513	-7.966081	-1.715621
C	-0.405665	-6.072714	0.965104
C	-0.574617	-4.787049	1.502136
C	0.413763	-5.162801	-1.214687
C	0.248748	-3.874817	-0.675870
C	-0.243888	-3.683952	0.664513
O	0.838511	-5.499772	-2.464209
O	-1.000176	-4.459055	2.757750
C	-1.893778	-5.329063	3.441858
H	-2.284868	-4.755694	4.303826
H	-1.383341	-6.238095	3.828743
H	-2.741817	-5.637262	2.792824
C	1.586168	-4.572261	-3.241222
H	1.974033	-5.139743	-4.108274
H	2.441448	-4.153131	-2.668916
H	0.954660	-3.739531	-3.620041
C	-0.369302	-2.306654	1.015668
S	0.517367	-2.306501	-1.453394
C	0.000000	-1.435185	0.000000
H	-0.724300	-1.978138	2.000559
C	0.000000	0.000000	0.000000
S	0.000474	0.904764	1.507541
C	-0.000295	2.477305	0.718873
C	0.000752	0.904447	-1.067872
C	-0.001560	2.294593	-0.686410
S	0.003602	0.660872	-2.805516
C	-0.001928	2.412546	-3.054530
C	-0.004381	3.120854	-1.862551
F	-0.009185	4.457503	-1.819088
C	-0.000038	2.860570	-4.456084
O	0.007944	2.090724	-5.406510
O	-0.007501	4.211092	-4.569225
C	-0.002278	4.706177	-5.916207
H	-0.009265	5.807207	-5.833064
H	-0.895381	4.352875	-6.470168
H	0.901521	4.363301	-6.459293
H	-0.001708	3.401562	1.306486
H	0.699838	-9.143623	0.588198
H	-0.992270	-9.149441	-0.014470
H	1.017360	-1.443175	0.362373
$end

$rem
JOBTYPE		SP
EXCHANGE	HF
CORRELATION	pRIMP2
BASIS		cc-pvtz
METHOD		rimp2
AUX_BASIS	rimp2-cc-pvtz
SOLVENT_METHOD	PCM
PURECART	11111
SYMMETRY	false
MEM_TOTAL	110000
SCF_CONVERGENCE = 6
THRESH=10
GUI = 2
$end

$solvent
dielectric 4.90
$end
--------------------------------------------------------------

             Standard Nuclear Orientation (Angstroms)
    I     Atom           X                Y                Z
 ----------------------------------------------------------------
    1      C      -0.1476850000    -8.5177020000     0.2849190000
    2      C       0.2125520000    -7.6415750000    -0.7285740000
    3      S      -0.6617570000    -7.6386340000     1.7453040000
    4      C       0.0837610000    -6.2647850000    -0.3748240000
    5      H       0.5655130000    -7.9660810000    -1.7156210000
    6      C      -0.4056650000    -6.0727140000     0.9651040000
    7      C      -0.5746170000    -4.7870490000     1.5021360000
    8      C       0.4137630000    -5.1628010000    -1.2146870000
    9      C       0.2487480000    -3.8748170000    -0.6758700000
   10      C      -0.2438880000    -3.6839520000     0.6645130000
   11      O       0.8385110000    -5.4997720000    -2.4642090000
   12      O      -1.0001760000    -4.4590550000     2.7577500000
   13      C      -1.8937780000    -5.3290630000     3.4418580000
   14      H      -2.2848680000    -4.7556940000     4.3038260000
   15      H      -1.3833410000    -6.2380950000     3.8287430000
   16      H      -2.7418170000    -5.6372620000     2.7928240000
   17      C       1.5861680000    -4.5722610000    -3.2412220000
   18      H       1.9740330000    -5.1397430000    -4.1082740000
   19      H       2.4414480000    -4.1531310000    -2.6689160000
   20      H       0.9546600000    -3.7395310000    -3.6200410000
   21      C      -0.3693020000    -2.3066540000     1.0156680000
   22      S       0.5173670000    -2.3065010000    -1.4533940000
   23      C       0.0000000000    -1.4351850000     0.0000000000
   24      H      -0.7243000000    -1.9781380000     2.0005590000
   25      C       0.0000000000     0.0000000000     0.0000000000
   26      S       0.0004740000     0.9047640000     1.5075410000
   27      C      -0.0002950000     2.4773050000     0.7188730000
   28      C       0.0007520000     0.9044470000    -1.0678720000
   29      C      -0.0015600000     2.2945930000    -0.6864100000
   30      S       0.0036020000     0.6608720000    -2.8055160000
   31      C      -0.0019280000     2.4125460000    -3.0545300000
   32      C      -0.0043810000     3.1208540000    -1.8625510000
   33      F      -0.0091850000     4.4575030000    -1.8190880000
   34      C      -0.0000380000     2.8605700000    -4.4560840000
   35      O       0.0079440000     2.0907240000    -5.4065100000
   36      O      -0.0075010000     4.2110920000    -4.5692250000
   37      C      -0.0022780000     4.7061770000    -5.9162070000
   38      H      -0.0092650000     5.8072070000    -5.8330640000
   39      H      -0.8953810000     4.3528750000    -6.4701680000
   40      H       0.9015210000     4.3633010000    -6.4592930000
   41      H      -0.0017080000     3.4015620000     1.3064860000
   42      H       0.6998380000    -9.1436230000     0.5881980000
   43      H      -0.9922700000    -9.1494410000    -0.0144700000
   44      H       1.0173600000    -1.4431750000     0.3623730000
 ----------------------------------------------------------------

   11   -2755.3434176672      8.65e-07  Convergence criterion met
 Total energy in the final basis set =    -2755.3434176672
        RIMP2         total energy =     -2760.4332481567 a.u.

                    Orbital Energies (a.u.)
 --------------------------------------------------------------

 Alpha MOs
 -- Occupied --
-92.0139 -91.9936 -91.9811 -91.9599 -26.3418 -20.6145 -20.5885 -20.5883
-20.5610 -11.4089 -11.3801 -11.3111 -11.3107 -11.3102 -11.3010 -11.2970
-11.2915 -11.2886 -11.2852 -11.2849 -11.2842 -11.2840 -11.2837 -11.2753
-11.2735 -11.2616 -11.2598 -11.2514 -11.2405  -9.0127  -8.9939  -8.9834
 -8.9625  -6.6936  -6.6930  -6.6924  -6.6749  -6.6742  -6.6730  -6.6645
 -6.6636  -6.6623  -6.6437  -6.6428  -6.6418  -1.6590  -1.4669  -1.4119
 -1.4101  -1.3696  -1.2296  -1.2030  -1.1756  -1.1369  -1.1014  -1.0487
 -1.0437  -1.0239  -1.0050  -0.9984  -0.9634  -0.9572  -0.9496  -0.9418
 -0.8951  -0.8693  -0.8658  -0.8149  -0.7933  -0.7902  -0.7851  -0.7700
 -0.7563  -0.7379  -0.7239  -0.7128  -0.6973  -0.6909  -0.6843  -0.6813
 -0.6735  -0.6631  -0.6568  -0.6496  -0.6388  -0.6313  -0.6216  -0.6161
 -0.6111  -0.5993  -0.5933  -0.5766  -0.5714  -0.5659  -0.5599  -0.5574
 -0.5501  -0.5328  -0.5312  -0.5269  -0.5152  -0.5118  -0.5084  -0.5016
 -0.4849  -0.4778  -0.4767  -0.4739  -0.4698  -0.4670  -0.4608  -0.4482
 -0.4318  -0.3971  -0.3850  -0.3721  -0.3508  -0.2992  -0.2874  -0.2189

          Ground-State Mulliken Net Atomic Charges

     Atom                 Charge (a.u.)
  ----------------------------------------
      1 C                    -0.070594
      2 C                    -0.249599
      3 S                    -0.132226
      4 C                    -0.052246
      5 H                     0.194879
      6 C                    -0.050023
      7 C                     0.221544
      8 C                     0.235443
      9 C                    -0.070855
     10 C                    -0.015959
     11 O                    -0.333903
     12 O                    -0.343874
     13 C                    -0.082891
     14 H                     0.120182
     15 H                     0.092272
     16 H                     0.093343
     17 C                    -0.089780
     18 H                     0.124895
     19 H                     0.093154
     20 H                     0.092526
     21 C                    -0.349026
     22 S                    -0.106981
     23 C                     0.200567
     24 H                     0.196034
     25 C                    -0.064486
     26 S                     0.072617
     27 C                    -0.209286
     28 C                    -0.012871
     29 C                    -0.122688
     30 S                    -0.009298
     31 C                    -0.163160
     32 C                     0.408727
     33 F                    -0.208589
     34 C                     0.442189
     35 O                    -0.460330
     36 O                    -0.300425
     37 C                    -0.058909
     38 H                     0.121367
     39 H                     0.095204
     40 H                     0.094977
     41 H                     0.217010
     42 H                     0.118748
     43 H                     0.116502
     44 H                     0.205820
  ----------------------------------------
  Sum of atomic charges =     0.000000

                    Cartesian Multipole Moments
 -----------------------------------------------------------------
    Charge (ESU x 10^10)
                 0.0000
    Dipole Moment (Debye)
         X       0.7078      Y       1.3936      Z       3.0185
       Tot       3.3992
    Quadrupole Moments (Debye-Ang)
        XX    -194.5525     XY      -1.4990     YY    -169.3302
        XZ      -9.1725     YZ      -3.4669     ZZ    -195.2607

 Total job time:  331.91s(wall), 10919.99s(cpu)
        *  Thank you very much for using Q-Chem.  Have a nice day.  *
