 Q-Chem 5.4, Q-Chem, Inc., Pleasanton, CA (2021)
 Q-Chem 5.4.0 for Intel X86 EM64T Linux

User input:
--------------------------------------------------------------
$molecule
0 1
C	-0.254945	-8.517702	-0.194917
C	0.680596	-7.641575	0.335839
S	-1.603876	-7.638634	-0.954772
C	0.354585	-6.264785	0.147576
H	1.591356	-7.966081	0.854836
C	-0.879999	-6.072714	-0.567090
C	-1.379534	-4.787049	-0.826731
C	1.124384	-5.162801	0.618405
C	0.622407	-3.874817	0.362333
C	-0.612067	-3.683952	-0.355575
O	2.281166	-5.499772	1.253677
O	-2.542174	-4.459055	-1.463859
C	-3.060718	-5.329063	-2.462679
H	-3.841678	-4.755694	-2.997507
H	-3.530361	-6.238095	-2.027179
H	-2.274283	-5.637262	-3.185132
C	2.916545	-4.572261	2.124902
H	3.703073	-5.139743	2.657438
H	2.204417	-4.153131	2.867810
H	3.399269	-3.739531	1.568770
C	-0.936109	-2.306654	-0.540061
S	1.341474	-2.306501	0.761887
C	0.000000	-1.435185	0.000000
H	-1.844392	-1.978138	-1.060690
C	0.000000	0.000000	0.000000
S	0.693394	0.581209	1.507541
C	1.897536	1.592607	0.718873
C	0.693330	0.580791	-1.067872
C	1.756758	1.476132	-0.686410
S	0.508573	0.422041	-2.805516
C	1.846879	1.552232	-3.054530
C	2.387897	2.009402	-1.862551
F	3.408741	2.872264	-1.819088
C	2.191300	1.838768	-4.456084
O	1.606694	1.337806	-5.406510
O	3.221062	2.712584	-4.569225
C	3.603677	3.026817	-5.916207
H	4.442623	3.739898	-5.833064
H	2.758956	3.483875	-6.470168
H	3.921969	2.114070	-6.459293
H	2.604650	2.187790	1.306486
H	-0.700788	-9.143623	0.587067
H	0.186556	-9.149441	-0.974683
H	-0.533530	-1.443175	0.938979
$end

$rem
JOBTYPE		SP
EXCHANGE	HF
CORRELATION	pRIMP2
BASIS		cc-pvtz
METHOD		rimp2
AUX_BASIS	rimp2-cc-pvtz
SOLVENT_METHOD	PCM
PURECART	11111
SYMMETRY	false
MEM_TOTAL	110000
SCF_CONVERGENCE = 6
THRESH=10
GUI = 2
$end

$solvent
dielectric 4.90
$end
--------------------------------------------------------------

             Standard Nuclear Orientation (Angstroms)
    I     Atom           X                Y                Z
 ----------------------------------------------------------------
    1      C      -0.2549450000    -8.5177020000    -0.1949170000
    2      C       0.6805960000    -7.6415750000     0.3358390000
    3      S      -1.6038760000    -7.6386340000    -0.9547720000
    4      C       0.3545850000    -6.2647850000     0.1475760000
    5      H       1.5913560000    -7.9660810000     0.8548360000
    6      C      -0.8799990000    -6.0727140000    -0.5670900000
    7      C      -1.3795340000    -4.7870490000    -0.8267310000
    8      C       1.1243840000    -5.1628010000     0.6184050000
    9      C       0.6224070000    -3.8748170000     0.3623330000
   10      C      -0.6120670000    -3.6839520000    -0.3555750000
   11      O       2.2811660000    -5.4997720000     1.2536770000
   12      O      -2.5421740000    -4.4590550000    -1.4638590000
   13      C      -3.0607180000    -5.3290630000    -2.4626790000
   14      H      -3.8416780000    -4.7556940000    -2.9975070000
   15      H      -3.5303610000    -6.2380950000    -2.0271790000
   16      H      -2.2742830000    -5.6372620000    -3.1851320000
   17      C       2.9165450000    -4.5722610000     2.1249020000
   18      H       3.7030730000    -5.1397430000     2.6574380000
   19      H       2.2044170000    -4.1531310000     2.8678100000
   20      H       3.3992690000    -3.7395310000     1.5687700000
   21      C      -0.9361090000    -2.3066540000    -0.5400610000
   22      S       1.3414740000    -2.3065010000     0.7618870000
   23      C       0.0000000000    -1.4351850000     0.0000000000
   24      H      -1.8443920000    -1.9781380000    -1.0606900000
   25      C       0.0000000000     0.0000000000     0.0000000000
   26      S       0.6933940000     0.5812090000     1.5075410000
   27      C       1.8975360000     1.5926070000     0.7188730000
   28      C       0.6933300000     0.5807910000    -1.0678720000
   29      C       1.7567580000     1.4761320000    -0.6864100000
   30      S       0.5085730000     0.4220410000    -2.8055160000
   31      C       1.8468790000     1.5522320000    -3.0545300000
   32      C       2.3878970000     2.0094020000    -1.8625510000
   33      F       3.4087410000     2.8722640000    -1.8190880000
   34      C       2.1913000000     1.8387680000    -4.4560840000
   35      O       1.6066940000     1.3378060000    -5.4065100000
   36      O       3.2210620000     2.7125840000    -4.5692250000
   37      C       3.6036770000     3.0268170000    -5.9162070000
   38      H       4.4426230000     3.7398980000    -5.8330640000
   39      H       2.7589560000     3.4838750000    -6.4701680000
   40      H       3.9219690000     2.1140700000    -6.4592930000
   41      H       2.6046500000     2.1877900000     1.3064860000
   42      H      -0.7007880000    -9.1436230000     0.5870670000
   43      H       0.1865560000    -9.1494410000    -0.9746830000
   44      H      -0.5335300000    -1.4431750000     0.9389790000
 ----------------------------------------------------------------

   11   -2755.2969873986      7.55e-07  Convergence criterion met
 Total energy in the final basis set =    -2755.2969873986
        RIMP2         total energy =     -2760.3952816561 a.u.

                    Orbital Energies (a.u.)
 --------------------------------------------------------------

 Alpha MOs
 -- Occupied --
-92.0153 -92.0073 -91.9717 -91.9552 -26.3459 -20.6157 -20.5856 -20.5840
-20.5622 -11.4107 -11.3864 -11.3306 -11.3128 -11.3071 -11.3019 -11.2990
-11.2895 -11.2876 -11.2831 -11.2814 -11.2796 -11.2757 -11.2733 -11.2701
-11.2686 -11.2554 -11.2514 -11.2467 -11.2303  -9.0148  -9.0070  -8.9743
 -8.9579  -6.6955  -6.6947  -6.6944  -6.6880  -6.6872  -6.6862  -6.6553
 -6.6545  -6.6532  -6.6391  -6.6382  -6.6372  -1.6630  -1.4683  -1.4080
 -1.4068  -1.3710  -1.2365  -1.2001  -1.1710  -1.1406  -1.0970  -1.0480
 -1.0428  -1.0276  -1.0016  -0.9936  -0.9654  -0.9593  -0.9465  -0.9396
 -0.8913  -0.8717  -0.8609  -0.8171  -0.7983  -0.7878  -0.7820  -0.7650
 -0.7578  -0.7374  -0.7277  -0.7175  -0.6961  -0.6881  -0.6855  -0.6783
 -0.6749  -0.6611  -0.6543  -0.6468  -0.6341  -0.6301  -0.6171  -0.6134
 -0.6110  -0.6019  -0.5902  -0.5768  -0.5696  -0.5623  -0.5566  -0.5531
 -0.5372  -0.5330  -0.5308  -0.5254  -0.5126  -0.5088  -0.5058  -0.4990
 -0.4852  -0.4835  -0.4763  -0.4753  -0.4728  -0.4657  -0.4553  -0.4436
 -0.4225  -0.3945  -0.3847  -0.3666  -0.3485  -0.3090  -0.2858  -0.2156

          Ground-State Mulliken Net Atomic Charges

     Atom                 Charge (a.u.)
  ----------------------------------------
      1 C                    -0.069197
      2 C                    -0.278375
      3 S                    -0.141596
      4 C                    -0.040180
      5 H                     0.190826
      6 C                    -0.054398
      7 C                     0.222738
      8 C                     0.217625
      9 C                    -0.078158
     10 C                    -0.053490
     11 O                    -0.336164
     12 O                    -0.343535
     13 C                    -0.082542
     14 H                     0.119561
     15 H                     0.091731
     16 H                     0.092900
     17 C                    -0.086556
     18 H                     0.122552
     19 H                     0.090382
     20 H                     0.089183
     21 C                    -0.268741
     22 S                    -0.084013
     23 C                     0.019356
     24 H                     0.208005
     25 C                    -0.147998
     26 S                     0.099061
     27 C                    -0.133962
     28 C                     0.093232
     29 C                    -0.113552
     30 S                     0.043801
     31 C                    -0.154032
     32 C                     0.396306
     33 F                    -0.204691
     34 C                     0.447231
     35 O                    -0.461608
     36 O                    -0.301204
     37 C                    -0.058243
     38 H                     0.121532
     39 H                     0.095211
     40 H                     0.095498
     41 H                     0.221678
     42 H                     0.114652
     43 H                     0.112453
     44 H                     0.186720
  ----------------------------------------
  Sum of atomic charges =     0.000000

                    Cartesian Multipole Moments
 -----------------------------------------------------------------
    Charge (ESU x 10^10)
                 0.0000
    Dipole Moment (Debye)
         X       2.7866      Y       4.1123      Z       3.1336
       Tot       5.8733
    Quadrupole Moments (Debye-Ang)
        XX    -183.8798     XY       6.2669     YY    -194.1778
        XZ       3.4702     YZ      -6.2364     ZZ    -194.0345

 Total job time:  322.55s(wall), 10560.84s(cpu)
        *  Thank you very much for using Q-Chem.  Have a nice day.  *
