 Q-Chem 5.4, Q-Chem, Inc., Pleasanton, CA (2021)
 Q-Chem 5.4.0 for Intel X86 EM64T Linux

User input:
--------------------------------------------------------------
$molecule
0 1
C	-0.217225	-8.517702	-0.236226
C	0.611939	-7.641575	0.448921
S	-1.413715	-7.638634	-1.218777
C	0.323572	-6.264785	0.206907
H	1.418739	-7.966081	1.118185
C	-0.768156	-6.072714	-0.711285
C	-1.215016	-4.787049	-1.053725
C	0.999917	-5.162801	0.804258
C	0.550033	-3.874817	0.464908
C	-0.541024	-3.683952	-0.456457
O	2.028811	-5.499772	1.630752
O	-2.249357	-4.459055	-1.883064
C	-2.586579	-5.329063	-2.956754
H	-3.262802	-4.755694	-3.619069
H	-3.124711	-6.238095	-2.609423
H	-1.686639	-5.637262	-3.531667
C	2.503251	-4.572261	2.599073
H	3.185356	-5.139743	3.260097
H	1.672937	-4.153131	3.207034
H	3.075213	-3.739531	2.135214
C	-0.828107	-2.306654	-0.694410
S	1.188794	-2.306501	0.983256
C	-0.000000	-1.435185	-0.000000
H	-1.632185	-1.978138	-1.364851
C	0.000000	0.000000	0.000000
S	0.157577	0.890937	1.507541
C	0.429889	2.439720	0.718873
C	0.157797	0.890576	-1.067872
C	0.396915	2.260004	-0.686410
S	0.118307	0.650207	-2.805516
C	0.417036	2.376229	-3.054530
C	0.537616	3.074202	-1.862551
F	0.764992	4.391378	-1.819088
C	0.496696	2.817118	-4.456084
O	0.370874	2.057582	-5.406510
O	0.723861	4.148418	-4.569225
C	0.814976	4.635075	-5.916207
H	0.999286	5.720591	-5.833064
H	-0.125909	4.442226	-6.470168
H	1.645504	4.140465	-6.459293
H	0.588993	3.350182	1.306486
H	-0.792084	-9.143623	0.456457
H	0.352973	-9.149441	-0.927480
H	-0.688477	-1.443175	0.832067
$end

$rem
JOBTYPE		SP
EXCHANGE	HF
CORRELATION	pRIMP2
BASIS		cc-pvtz
METHOD		rimp2
AUX_BASIS	rimp2-cc-pvtz
SOLVENT_METHOD	PCM
PURECART	11111
SYMMETRY	false
MEM_TOTAL	110000
SCF_CONVERGENCE = 6
THRESH=10
GUI = 2
$end

$solvent
dielectric 4.90
$end
--------------------------------------------------------------

             Standard Nuclear Orientation (Angstroms)
    I     Atom           X                Y                Z
 ----------------------------------------------------------------
    1      C      -0.2172250000    -8.5177020000    -0.2362260000
    2      C       0.6119390000    -7.6415750000     0.4489210000
    3      S      -1.4137150000    -7.6386340000    -1.2187770000
    4      C       0.3235720000    -6.2647850000     0.2069070000
    5      H       1.4187390000    -7.9660810000     1.1181850000
    6      C      -0.7681560000    -6.0727140000    -0.7112850000
    7      C      -1.2150160000    -4.7870490000    -1.0537250000
    8      C       0.9999170000    -5.1628010000     0.8042580000
    9      C       0.5500330000    -3.8748170000     0.4649080000
   10      C      -0.5410240000    -3.6839520000    -0.4564570000
   11      O       2.0288110000    -5.4997720000     1.6307520000
   12      O      -2.2493570000    -4.4590550000    -1.8830640000
   13      C      -2.5865790000    -5.3290630000    -2.9567540000
   14      H      -3.2628020000    -4.7556940000    -3.6190690000
   15      H      -3.1247110000    -6.2380950000    -2.6094230000
   16      H      -1.6866390000    -5.6372620000    -3.5316670000
   17      C       2.5032510000    -4.5722610000     2.5990730000
   18      H       3.1853560000    -5.1397430000     3.2600970000
   19      H       1.6729370000    -4.1531310000     3.2070340000
   20      H       3.0752130000    -3.7395310000     2.1352140000
   21      C      -0.8281070000    -2.3066540000    -0.6944100000
   22      S       1.1887940000    -2.3065010000     0.9832560000
   23      C       0.0000000000    -1.4351850000     0.0000000000
   24      H      -1.6321850000    -1.9781380000    -1.3648510000
   25      C       0.0000000000     0.0000000000     0.0000000000
   26      S       0.1575770000     0.8909370000     1.5075410000
   27      C       0.4298890000     2.4397200000     0.7188730000
   28      C       0.1577970000     0.8905760000    -1.0678720000
   29      C       0.3969150000     2.2600040000    -0.6864100000
   30      S       0.1183070000     0.6502070000    -2.8055160000
   31      C       0.4170360000     2.3762290000    -3.0545300000
   32      C       0.5376160000     3.0742020000    -1.8625510000
   33      F       0.7649920000     4.3913780000    -1.8190880000
   34      C       0.4966960000     2.8171180000    -4.4560840000
   35      O       0.3708740000     2.0575820000    -5.4065100000
   36      O       0.7238610000     4.1484180000    -4.5692250000
   37      C       0.8149760000     4.6350750000    -5.9162070000
   38      H       0.9992860000     5.7205910000    -5.8330640000
   39      H      -0.1259090000     4.4422260000    -6.4701680000
   40      H       1.6455040000     4.1404650000    -6.4592930000
   41      H       0.5889930000     3.3501820000     1.3064860000
   42      H      -0.7920840000    -9.1436230000     0.4564570000
   43      H       0.3529730000    -9.1494410000    -0.9274800000
   44      H      -0.6884770000    -1.4431750000     0.8320670000
 ----------------------------------------------------------------

   11   -2755.3430026188      8.15e-07  Convergence criterion met
 Total energy in the final basis set =    -2755.3430026188
        RIMP2         total energy =     -2760.4310634447 a.u.

                    Orbital Energies (a.u.)
 --------------------------------------------------------------

 Alpha MOs
 -- Occupied --
-92.0164 -91.9975 -91.9787 -91.9581 -26.3433 -20.6150 -20.5871 -20.5870
-20.5616 -11.4096 -11.3824 -11.3095 -11.3090 -11.3074 -11.3029 -11.2982
-11.2971 -11.2890 -11.2850 -11.2848 -11.2835 -11.2824 -11.2803 -11.2730
-11.2728 -11.2582 -11.2579 -11.2495 -11.2365  -9.0151  -8.9976  -8.9809
 -8.9607  -6.6959  -6.6953  -6.6948  -6.6786  -6.6779  -6.6768  -6.6620
 -6.6611  -6.6598  -6.6419  -6.6410  -6.6400  -1.6604  -1.4675  -1.4105
 -1.4088  -1.3702  -1.2290  -1.2029  -1.1737  -1.1377  -1.0999  -1.0462
 -1.0445  -1.0242  -1.0039  -0.9974  -0.9627  -0.9592  -0.9484  -0.9404
 -0.8938  -0.8687  -0.8666  -0.8119  -0.8004  -0.7886  -0.7847  -0.7677
 -0.7567  -0.7378  -0.7253  -0.7162  -0.6979  -0.6864  -0.6847  -0.6799
 -0.6740  -0.6610  -0.6563  -0.6485  -0.6353  -0.6309  -0.6199  -0.6148
 -0.6119  -0.5991  -0.5921  -0.5761  -0.5716  -0.5648  -0.5585  -0.5519
 -0.5492  -0.5336  -0.5311  -0.5279  -0.5135  -0.5078  -0.5071  -0.5014
 -0.4852  -0.4805  -0.4770  -0.4744  -0.4730  -0.4686  -0.4604  -0.4461
 -0.4275  -0.3974  -0.3855  -0.3701  -0.3513  -0.2999  -0.2888  -0.2192

          Ground-State Mulliken Net Atomic Charges

     Atom                 Charge (a.u.)
  ----------------------------------------
      1 C                    -0.070080
      2 C                    -0.261350
      3 S                    -0.135511
      4 C                    -0.043888
      5 H                     0.193250
      6 C                    -0.051791
      7 C                     0.224751
      8 C                     0.223729
      9 C                    -0.076104
     10 C                    -0.055635
     11 O                    -0.334688
     12 O                    -0.343587
     13 C                    -0.082696
     14 H                     0.120465
     15 H                     0.091781
     16 H                     0.093209
     17 C                    -0.087218
     18 H                     0.123385
     19 H                     0.091912
     20 H                     0.090265
     21 C                    -0.258265
     22 S                    -0.076697
     23 C                     0.083468
     24 H                     0.211049
     25 C                    -0.118488
     26 S                     0.082716
     27 C                    -0.183833
     28 C                     0.052724
     29 C                    -0.121764
     30 S                     0.003323
     31 C                    -0.155841
     32 C                     0.400158
     33 F                    -0.207241
     34 C                     0.444119
     35 O                    -0.460455
     36 O                    -0.300569
     37 C                    -0.058613
     38 H                     0.121409
     39 H                     0.095110
     40 H                     0.095244
     41 H                     0.218527
     42 H                     0.117062
     43 H                     0.114986
     44 H                     0.191670
  ----------------------------------------
  Sum of atomic charges =     0.000000

                    Cartesian Multipole Moments
 -----------------------------------------------------------------
    Charge (ESU x 10^10)
                 0.0000
    Dipole Moment (Debye)
         X       0.1732      Y       2.8181      Z       3.5237
       Tot       4.5153
    Quadrupole Moments (Debye-Ang)
        XX    -196.5248     XY      -0.1223     YY    -175.4967
        XZ       6.9630     YZ      -9.7880     ZZ    -192.6795

 Total job time:  361.56s(wall), 11056.35s(cpu)
        *  Thank you very much for using Q-Chem.  Have a nice day.  *
