 Q-Chem 5.4, Q-Chem, Inc., Pleasanton, CA (2021)
 Q-Chem 5.4.0 for Intel X86 EM64T Linux

User input:
--------------------------------------------------------------
$molecule
0 1
C	-0.284919	-8.517702	-0.147685
C	0.728574	-7.641575	0.212552
S	-1.745304	-7.638634	-0.661757
C	0.374824	-6.264785	0.083761
H	1.715621	-7.966081	0.565513
C	-0.965104	-6.072714	-0.405665
C	-1.502136	-4.787049	-0.574617
C	1.214687	-5.162801	0.413763
C	0.675870	-3.874817	0.248748
C	-0.664513	-3.683952	-0.243888
O	2.464209	-5.499772	0.838511
O	-2.757750	-4.459055	-1.000176
C	-3.441858	-5.329063	-1.893778
H	-4.303826	-4.755694	-2.284868
H	-3.828743	-6.238095	-1.383341
H	-2.792824	-5.637262	-2.741817
C	3.241222	-4.572261	1.586168
H	4.108274	-5.139743	1.974033
H	2.668916	-4.153131	2.441448
H	3.620041	-3.739531	0.954660
C	-1.015668	-2.306654	-0.369302
S	1.453394	-2.306501	0.517367
C	-0.000000	-1.435185	-0.000000
H	-2.000559	-1.978138	-0.724300
C	0.000000	0.000000	0.000000
S	0.079327	0.901280	1.507541
C	0.215617	2.467903	0.718873
C	0.079577	0.900940	-1.067872
C	0.198433	2.285998	-0.686410
S	0.061187	0.658044	-2.805516
C	0.208347	2.403534	-3.054530
C	0.267636	3.109360	-1.862551
F	0.379347	4.441341	-1.819088
C	0.249278	2.849688	-4.456084
O	0.190132	2.082076	-5.406510
O	0.359548	4.195721	-4.569225
C	0.407901	4.688467	-5.916207
H	0.496901	5.785916	-5.833064
H	-0.512596	4.414348	-6.470168
H	1.278377	4.268124	-6.459293
H	0.294764	3.388767	1.306486
H	-0.588198	-9.143623	0.699838
H	0.014470	-9.149441	-0.992270
H	-0.362373	-1.443175	1.017360
$end

$rem
JOBTYPE		SP
EXCHANGE	HF
CORRELATION	pRIMP2
BASIS		cc-pvtz
METHOD		rimp2
AUX_BASIS	rimp2-cc-pvtz
SOLVENT_METHOD	PCM
PURECART	11111
SYMMETRY	false
MEM_TOTAL	110000
SCF_CONVERGENCE = 6
THRESH=10
GUI = 2
$end

$solvent
dielectric 4.90
$end
--------------------------------------------------------------

             Standard Nuclear Orientation (Angstroms)
    I     Atom           X                Y                Z
 ----------------------------------------------------------------
    1      C      -0.2849190000    -8.5177020000    -0.1476850000
    2      C       0.7285740000    -7.6415750000     0.2125520000
    3      S      -1.7453040000    -7.6386340000    -0.6617570000
    4      C       0.3748240000    -6.2647850000     0.0837610000
    5      H       1.7156210000    -7.9660810000     0.5655130000
    6      C      -0.9651040000    -6.0727140000    -0.4056650000
    7      C      -1.5021360000    -4.7870490000    -0.5746170000
    8      C       1.2146870000    -5.1628010000     0.4137630000
    9      C       0.6758700000    -3.8748170000     0.2487480000
   10      C      -0.6645130000    -3.6839520000    -0.2438880000
   11      O       2.4642090000    -5.4997720000     0.8385110000
   12      O      -2.7577500000    -4.4590550000    -1.0001760000
   13      C      -3.4418580000    -5.3290630000    -1.8937780000
   14      H      -4.3038260000    -4.7556940000    -2.2848680000
   15      H      -3.8287430000    -6.2380950000    -1.3833410000
   16      H      -2.7928240000    -5.6372620000    -2.7418170000
   17      C       3.2412220000    -4.5722610000     1.5861680000
   18      H       4.1082740000    -5.1397430000     1.9740330000
   19      H       2.6689160000    -4.1531310000     2.4414480000
   20      H       3.6200410000    -3.7395310000     0.9546600000
   21      C      -1.0156680000    -2.3066540000    -0.3693020000
   22      S       1.4533940000    -2.3065010000     0.5173670000
   23      C       0.0000000000    -1.4351850000     0.0000000000
   24      H      -2.0005590000    -1.9781380000    -0.7243000000
   25      C       0.0000000000     0.0000000000     0.0000000000
   26      S       0.0793270000     0.9012800000     1.5075410000
   27      C       0.2156170000     2.4679030000     0.7188730000
   28      C       0.0795770000     0.9009400000    -1.0678720000
   29      C       0.1984330000     2.2859980000    -0.6864100000
   30      S       0.0611870000     0.6580440000    -2.8055160000
   31      C       0.2083470000     2.4035340000    -3.0545300000
   32      C       0.2676360000     3.1093600000    -1.8625510000
   33      F       0.3793470000     4.4413410000    -1.8190880000
   34      C       0.2492780000     2.8496880000    -4.4560840000
   35      O       0.1901320000     2.0820760000    -5.4065100000
   36      O       0.3595480000     4.1957210000    -4.5692250000
   37      C       0.4079010000     4.6884670000    -5.9162070000
   38      H       0.4969010000     5.7859160000    -5.8330640000
   39      H      -0.5125960000     4.4143480000    -6.4701680000
   40      H       1.2783770000     4.2681240000    -6.4592930000
   41      H       0.2947640000     3.3887670000     1.3064860000
   42      H      -0.5881980000    -9.1436230000     0.6998380000
   43      H       0.0144700000    -9.1494410000    -0.9922700000
   44      H      -0.3623730000    -1.4431750000     1.0173600000
 ----------------------------------------------------------------

   11   -2755.3450036436      7.64e-07  Convergence criterion met
 Total energy in the final basis set =    -2755.3450036436
        RIMP2         total energy =     -2760.4318862541 a.u.

                    Orbital Energies (a.u.)
 --------------------------------------------------------------

 Alpha MOs
 -- Occupied --
-92.0175 -91.9980 -91.9768 -91.9578 -26.3435 -20.6150 -20.5869 -20.5865
-20.5615 -11.4096 -11.3826 -11.3114 -11.3088 -11.3065 -11.3004 -11.2985
-11.2981 -11.2890 -11.2851 -11.2843 -11.2828 -11.2825 -11.2793 -11.2724
-11.2723 -11.2578 -11.2571 -11.2493 -11.2360  -9.0161  -8.9981  -8.9791
 -8.9604  -6.6968  -6.6963  -6.6957  -6.6791  -6.6784  -6.6773  -6.6601
 -6.6593  -6.6580  -6.6417  -6.6407  -6.6397  -1.6606  -1.4675  -1.4100
 -1.4086  -1.3702  -1.2285  -1.2025  -1.1733  -1.1377  -1.0995  -1.0457
 -1.0443  -1.0245  -1.0035  -0.9967  -0.9627  -0.9589  -0.9481  -0.9404
 -0.8930  -0.8685  -0.8666  -0.8131  -0.7993  -0.7886  -0.7845  -0.7675
 -0.7567  -0.7377  -0.7255  -0.7169  -0.6974  -0.6860  -0.6846  -0.6795
 -0.6740  -0.6605  -0.6559  -0.6483  -0.6336  -0.6304  -0.6196  -0.6148
 -0.6114  -0.5991  -0.5916  -0.5765  -0.5715  -0.5646  -0.5582  -0.5531
 -0.5488  -0.5325  -0.5309  -0.5261  -0.5129  -0.5076  -0.5068  -0.5013
 -0.4854  -0.4813  -0.4767  -0.4740  -0.4721  -0.4681  -0.4607  -0.4459
 -0.4239  -0.3994  -0.3848  -0.3699  -0.3510  -0.3010  -0.2888  -0.2202

          Ground-State Mulliken Net Atomic Charges

     Atom                 Charge (a.u.)
  ----------------------------------------
      1 C                    -0.070115
      2 C                    -0.262128
      3 S                    -0.135978
      4 C                    -0.043444
      5 H                     0.193044
      6 C                    -0.052480
      7 C                     0.227011
      8 C                     0.223925
      9 C                    -0.078323
     10 C                    -0.062200
     11 O                    -0.335099
     12 O                    -0.343581
     13 C                    -0.082617
     14 H                     0.120117
     15 H                     0.091695
     16 H                     0.093226
     17 C                    -0.086554
     18 H                     0.122955
     19 H                     0.091549
     20 H                     0.090532
     21 C                    -0.238072
     22 S                    -0.074660
     23 C                     0.070810
     24 H                     0.207628
     25 C                    -0.117937
     26 S                     0.092402
     27 C                    -0.186520
     28 C                     0.047351
     29 C                    -0.117632
     30 S                     0.006941
     31 C                    -0.157227
     32 C                     0.401715
     33 F                    -0.207205
     34 C                     0.443839
     35 O                    -0.460589
     36 O                    -0.300566
     37 C                    -0.058643
     38 H                     0.121376
     39 H                     0.095145
     40 H                     0.095218
     41 H                     0.219023
     42 H                     0.116868
     43 H                     0.114758
     44 H                     0.184444
  ----------------------------------------
  Sum of atomic charges =     0.000000

                    Cartesian Multipole Moments
 -----------------------------------------------------------------
    Charge (ESU x 10^10)
                 0.0000
    Dipole Moment (Debye)
         X       0.1266      Y       3.1403      Z       3.5266
       Tot       4.7238
    Quadrupole Moments (Debye-Ang)
        XX    -190.7086     XY      -1.9923     YY    -176.0661
        XZ       8.4398     YZ      -8.5942     ZZ    -198.8716

 Total job time:  328.74s(wall), 10426.86s(cpu)
        *  Thank you very much for using Q-Chem.  Have a nice day.  *
