 Q-Chem 5.4, Q-Chem, Inc., Pleasanton, CA (2021)
 Q-Chem 5.4.0 for Intel X86 EM64T Linux

User input:
--------------------------------------------------------------
$molecule
0 1
C	-0.236226	-8.517702	0.217225
C	0.448921	-7.641575	-0.611939
S	-1.218777	-7.638634	1.413715
C	0.206907	-6.264785	-0.323572
H	1.118185	-7.966081	-1.418739
C	-0.711285	-6.072714	0.768156
C	-1.053725	-4.787049	1.215016
C	0.804258	-5.162801	-0.999917
C	0.464908	-3.874817	-0.550033
C	-0.456457	-3.683952	0.541024
O	1.630752	-5.499772	-2.028811
O	-1.883064	-4.459055	2.249357
C	-2.956754	-5.329063	2.586579
H	-3.619069	-4.755694	3.262802
H	-2.609423	-6.238095	3.124711
H	-3.531667	-5.637262	1.686639
C	2.599073	-4.572261	-2.503251
H	3.260097	-5.139743	-3.185356
H	3.207034	-4.153131	-1.672937
H	2.135214	-3.739531	-3.075213
C	-0.694410	-2.306654	0.828107
S	0.983256	-2.306501	-1.188794
C	-0.000000	-1.435185	-0.000000
H	-1.364851	-1.978138	1.632185
C	0.000000	0.000000	0.000000
S	0.382799	0.819795	1.507541
C	1.046687	2.245325	0.718873
C	0.382918	0.819389	-1.067872
C	0.968323	2.080267	-0.686410
S	0.282561	0.597432	-2.805516
C	1.017839	2.187324	-3.054530
C	1.314960	2.830306	-1.862551
F	1.875498	4.043751	-1.819088
C	1.208895	2.592573	-4.456084
O	0.890778	1.891482	-5.406510
O	1.772886	3.819715	-4.569225
C	1.986852	4.266207	-5.916207
H	2.445834	5.267032	-5.833064
H	1.028114	4.323448	-6.470168
H	2.661066	3.573494	-6.459293
H	1.436015	3.083584	1.306486
H	0.456457	-9.143623	0.792084
H	-0.927480	-9.149441	-0.352973
H	0.832067	-1.443175	0.688477
$end

$rem
JOBTYPE		SP
EXCHANGE	HF
CORRELATION	pRIMP2
BASIS		cc-pvtz
METHOD		rimp2
AUX_BASIS	rimp2-cc-pvtz
SOLVENT_METHOD	PCM
PURECART	11111
SYMMETRY	false
MEM_TOTAL	110000
SCF_CONVERGENCE = 6
THRESH=10
GUI = 2
$end

$solvent
dielectric 4.90
$end
--------------------------------------------------------------

             Standard Nuclear Orientation (Angstroms)
    I     Atom           X                Y                Z
 ----------------------------------------------------------------
    1      C      -0.2362260000    -8.5177020000     0.2172250000
    2      C       0.4489210000    -7.6415750000    -0.6119390000
    3      S      -1.2187770000    -7.6386340000     1.4137150000
    4      C       0.2069070000    -6.2647850000    -0.3235720000
    5      H       1.1181850000    -7.9660810000    -1.4187390000
    6      C      -0.7112850000    -6.0727140000     0.7681560000
    7      C      -1.0537250000    -4.7870490000     1.2150160000
    8      C       0.8042580000    -5.1628010000    -0.9999170000
    9      C       0.4649080000    -3.8748170000    -0.5500330000
   10      C      -0.4564570000    -3.6839520000     0.5410240000
   11      O       1.6307520000    -5.4997720000    -2.0288110000
   12      O      -1.8830640000    -4.4590550000     2.2493570000
   13      C      -2.9567540000    -5.3290630000     2.5865790000
   14      H      -3.6190690000    -4.7556940000     3.2628020000
   15      H      -2.6094230000    -6.2380950000     3.1247110000
   16      H      -3.5316670000    -5.6372620000     1.6866390000
   17      C       2.5990730000    -4.5722610000    -2.5032510000
   18      H       3.2600970000    -5.1397430000    -3.1853560000
   19      H       3.2070340000    -4.1531310000    -1.6729370000
   20      H       2.1352140000    -3.7395310000    -3.0752130000
   21      C      -0.6944100000    -2.3066540000     0.8281070000
   22      S       0.9832560000    -2.3065010000    -1.1887940000
   23      C       0.0000000000    -1.4351850000     0.0000000000
   24      H      -1.3648510000    -1.9781380000     1.6321850000
   25      C       0.0000000000     0.0000000000     0.0000000000
   26      S       0.3827990000     0.8197950000     1.5075410000
   27      C       1.0466870000     2.2453250000     0.7188730000
   28      C       0.3829180000     0.8193890000    -1.0678720000
   29      C       0.9683230000     2.0802670000    -0.6864100000
   30      S       0.2825610000     0.5974320000    -2.8055160000
   31      C       1.0178390000     2.1873240000    -3.0545300000
   32      C       1.3149600000     2.8303060000    -1.8625510000
   33      F       1.8754980000     4.0437510000    -1.8190880000
   34      C       1.2088950000     2.5925730000    -4.4560840000
   35      O       0.8907780000     1.8914820000    -5.4065100000
   36      O       1.7728860000     3.8197150000    -4.5692250000
   37      C       1.9868520000     4.2662070000    -5.9162070000
   38      H       2.4458340000     5.2670320000    -5.8330640000
   39      H       1.0281140000     4.3234480000    -6.4701680000
   40      H       2.6610660000     3.5734940000    -6.4592930000
   41      H       1.4360150000     3.0835840000     1.3064860000
   42      H       0.4564570000    -9.1436230000     0.7920840000
   43      H      -0.9274800000    -9.1494410000    -0.3529730000
   44      H       0.8320670000    -1.4431750000     0.6884770000
 ----------------------------------------------------------------

   11   -2755.3329633314      8.16e-07  Convergence criterion met
 Total energy in the final basis set =    -2755.3329633314
        RIMP2         total energy =     -2760.4245769228 a.u.

                    Orbital Energies (a.u.)
 --------------------------------------------------------------

 Alpha MOs
 -- Occupied --
-92.0124 -91.9962 -91.9784 -91.9585 -26.3429 -20.6148 -20.5875 -20.5871
-20.5613 -11.4092 -11.3818 -11.3098 -11.3091 -11.3081 -11.3034 -11.2973
-11.2972 -11.2888 -11.2848 -11.2841 -11.2831 -11.2828 -11.2803 -11.2733
-11.2708 -11.2584 -11.2581 -11.2501 -11.2377  -9.0117  -8.9964  -8.9806
 -8.9611  -6.6925  -6.6919  -6.6913  -6.6774  -6.6766  -6.6755  -6.6616
 -6.6608  -6.6595  -6.6424  -6.6414  -6.6404  -1.6600  -1.4672  -1.4106
 -1.4092  -1.3699  -1.2314  -1.2019  -1.1741  -1.1380  -1.0997  -1.0473
 -1.0440  -1.0249  -1.0036  -0.9966  -0.9637  -0.9571  -0.9488  -0.9413
 -0.8937  -0.8682  -0.8651  -0.8155  -0.7938  -0.7895  -0.7842  -0.7687
 -0.7563  -0.7377  -0.7249  -0.7150  -0.6966  -0.6888  -0.6846  -0.6804
 -0.6738  -0.6626  -0.6559  -0.6487  -0.6370  -0.6301  -0.6203  -0.6153
 -0.6109  -0.5994  -0.5925  -0.5769  -0.5710  -0.5641  -0.5596  -0.5580
 -0.5471  -0.5333  -0.5311  -0.5250  -0.5130  -0.5104  -0.5076  -0.5014
 -0.4846  -0.4800  -0.4761  -0.4735  -0.4692  -0.4670  -0.4595  -0.4472
 -0.4290  -0.3945  -0.3857  -0.3700  -0.3523  -0.2978  -0.2891  -0.2186

          Ground-State Mulliken Net Atomic Charges

     Atom                 Charge (a.u.)
  ----------------------------------------
      1 C                    -0.070239
      2 C                    -0.257614
      3 S                    -0.135477
      4 C                    -0.047816
      5 H                     0.193886
      6 C                    -0.047550
      7 C                     0.214604
      8 C                     0.225946
      9 C                    -0.073249
     10 C                    -0.019290
     11 O                    -0.334567
     12 O                    -0.343583
     13 C                    -0.082773
     14 H                     0.119860
     15 H                     0.092043
     16 H                     0.093180
     17 C                    -0.088840
     18 H                     0.123984
     19 H                     0.092125
     20 H                     0.091856
     21 C                    -0.312814
     22 S                    -0.088498
     23 C                     0.108052
     24 H                     0.202443
     25 C                    -0.006841
     26 S                     0.084924
     27 C                    -0.195270
     28 C                    -0.095988
     29 C                    -0.081509
     30 S                     0.016226
     31 C                    -0.156976
     32 C                     0.402241
     33 F                    -0.207711
     34 C                     0.443138
     35 O                    -0.460258
     36 O                    -0.300785
     37 C                    -0.058564
     38 H                     0.121347
     39 H                     0.095247
     40 H                     0.095022
     41 H                     0.217073
     42 H                     0.117623
     43 H                     0.115480
     44 H                     0.199913
  ----------------------------------------
  Sum of atomic charges =     0.000000

                    Cartesian Multipole Moments
 -----------------------------------------------------------------
    Charge (ESU x 10^10)
                -0.0000
    Dipole Moment (Debye)
         X       1.7711      Y       2.2444      Z       3.1375
       Tot       4.2448
    Quadrupole Moments (Debye-Ang)
        XX    -185.4175     XY       3.4030     YY    -176.3520
        XZ     -11.4149     YZ      -3.5063     ZZ    -201.3459

 Total job time:  326.53s(wall), 10608.17s(cpu)
        *  Thank you very much for using Q-Chem.  Have a nice day.  *
