 Q-Chem 5.4, Q-Chem, Inc., Pleasanton, CA (2021)
 Q-Chem 5.4.0 for Intel X86 EM64T Linux

User input:
--------------------------------------------------------------
$molecule
0 1
C	0.254945	-8.517702	0.194917
C	-0.680596	-7.641575	-0.335839
S	1.603876	-7.638634	0.954772
C	-0.354585	-6.264785	-0.147576
H	-1.591356	-7.966081	-0.854836
C	0.879999	-6.072714	0.567090
C	1.379534	-4.787049	0.826731
C	-1.124384	-5.162801	-0.618405
C	-0.622407	-3.874817	-0.362333
C	0.612067	-3.683952	0.355575
O	-2.281166	-5.499772	-1.253677
O	2.542174	-4.459055	1.463859
C	3.060718	-5.329063	2.462679
H	3.841678	-4.755694	2.997507
H	3.530361	-6.238095	2.027179
H	2.274283	-5.637262	3.185132
C	-2.916545	-4.572261	-2.124902
H	-3.703073	-5.139743	-2.657438
H	-2.204417	-4.153131	-2.867810
H	-3.399269	-3.739531	-1.568770
C	0.936109	-2.306654	0.540061
S	-1.341474	-2.306501	-0.761887
C	-0.000000	-1.435185	-0.000000
H	1.844392	-1.978138	1.060690
C	0.000000	0.000000	0.000000
S	0.581934	0.692785	1.507541
C	1.592155	1.897915	0.718873
C	0.581944	0.692363	-1.067872
C	1.473741	1.758764	-0.686410
S	0.427560	0.503942	-2.805516
C	1.549278	1.849357	-3.054530
C	2.002690	2.393529	-1.862551
F	2.858191	3.420549	-1.819088
C	1.838710	2.191348	-4.456084
O	1.349977	1.596481	-5.406510
O	2.701091	3.230705	-4.569225
C	3.023327	3.606605	-5.916207
H	3.725703	4.454534	-5.833064
H	2.112072	3.910035	-6.470168
H	3.495281	2.762996	-6.459293
H	2.185174	2.606846	1.306486
H	0.700788	-9.143623	-0.587067
H	-0.186556	-9.149441	0.974683
H	0.533530	-1.443175	-0.938979
$end

$rem
JOBTYPE		SP
EXCHANGE	HF
CORRELATION	pRIMP2
BASIS		cc-pvtz
METHOD		rimp2
AUX_BASIS	rimp2-cc-pvtz
SOLVENT_METHOD	PCM
PURECART	11111
SYMMETRY	false
MEM_TOTAL	110000
SCF_CONVERGENCE = 6
THRESH=10
GUI = 2
$end

$solvent
dielectric 4.90
$end
--------------------------------------------------------------

             Standard Nuclear Orientation (Angstroms)
    I     Atom           X                Y                Z
 ----------------------------------------------------------------
    1      C       0.2549450000    -8.5177020000     0.1949170000
    2      C      -0.6805960000    -7.6415750000    -0.3358390000
    3      S       1.6038760000    -7.6386340000     0.9547720000
    4      C      -0.3545850000    -6.2647850000    -0.1475760000
    5      H      -1.5913560000    -7.9660810000    -0.8548360000
    6      C       0.8799990000    -6.0727140000     0.5670900000
    7      C       1.3795340000    -4.7870490000     0.8267310000
    8      C      -1.1243840000    -5.1628010000    -0.6184050000
    9      C      -0.6224070000    -3.8748170000    -0.3623330000
   10      C       0.6120670000    -3.6839520000     0.3555750000
   11      O      -2.2811660000    -5.4997720000    -1.2536770000
   12      O       2.5421740000    -4.4590550000     1.4638590000
   13      C       3.0607180000    -5.3290630000     2.4626790000
   14      H       3.8416780000    -4.7556940000     2.9975070000
   15      H       3.5303610000    -6.2380950000     2.0271790000
   16      H       2.2742830000    -5.6372620000     3.1851320000
   17      C      -2.9165450000    -4.5722610000    -2.1249020000
   18      H      -3.7030730000    -5.1397430000    -2.6574380000
   19      H      -2.2044170000    -4.1531310000    -2.8678100000
   20      H      -3.3992690000    -3.7395310000    -1.5687700000
   21      C       0.9361090000    -2.3066540000     0.5400610000
   22      S      -1.3414740000    -2.3065010000    -0.7618870000
   23      C       0.0000000000    -1.4351850000     0.0000000000
   24      H       1.8443920000    -1.9781380000     1.0606900000
   25      C       0.0000000000     0.0000000000     0.0000000000
   26      S       0.5819340000     0.6927850000     1.5075410000
   27      C       1.5921550000     1.8979150000     0.7188730000
   28      C       0.5819440000     0.6923630000    -1.0678720000
   29      C       1.4737410000     1.7587640000    -0.6864100000
   30      S       0.4275600000     0.5039420000    -2.8055160000
   31      C       1.5492780000     1.8493570000    -3.0545300000
   32      C       2.0026900000     2.3935290000    -1.8625510000
   33      F       2.8581910000     3.4205490000    -1.8190880000
   34      C       1.8387100000     2.1913480000    -4.4560840000
   35      O       1.3499770000     1.5964810000    -5.4065100000
   36      O       2.7010910000     3.2307050000    -4.5692250000
   37      C       3.0233270000     3.6066050000    -5.9162070000
   38      H       3.7257030000     4.4545340000    -5.8330640000
   39      H       2.1120720000     3.9100350000    -6.4701680000
   40      H       3.4952810000     2.7629960000    -6.4592930000
   41      H       2.1851740000     2.6068460000     1.3064860000
   42      H       0.7007880000    -9.1436230000    -0.5870670000
   43      H      -0.1865560000    -9.1494410000     0.9746830000
   44      H       0.5335300000    -1.4431750000    -0.9389790000
 ----------------------------------------------------------------

   11   -2755.3141536365      7.29e-07  Convergence criterion met
 Total energy in the final basis set =    -2755.3141536365
        RIMP2         total energy =     -2760.4112678972 a.u.

                    Orbital Energies (a.u.)
 --------------------------------------------------------------

 Alpha MOs
 -- Occupied --
-92.0145 -92.0061 -91.9717 -91.9571 -26.3460 -20.6159 -20.5869 -20.5847
-20.5624 -11.4109 -11.3864 -11.3196 -11.3083 -11.3081 -11.3039 -11.2994
-11.2913 -11.2896 -11.2874 -11.2827 -11.2826 -11.2808 -11.2761 -11.2721
-11.2714 -11.2567 -11.2556 -11.2483 -11.2337  -9.0134  -9.0060  -8.9742
 -8.9597  -6.6941  -6.6934  -6.6930  -6.6869  -6.6862  -6.6851  -6.6554
 -6.6545  -6.6532  -6.6409  -6.6400  -6.6390  -1.6630  -1.4684  -1.4091
 -1.4077  -1.3712  -1.2357  -1.2007  -1.1723  -1.1396  -1.0996  -1.0488
 -1.0441  -1.0260  -1.0015  -0.9955  -0.9651  -0.9571  -0.9482  -0.9418
 -0.8915  -0.8723  -0.8614  -0.8176  -0.7951  -0.7889  -0.7831  -0.7669
 -0.7593  -0.7344  -0.7277  -0.7117  -0.7015  -0.6934  -0.6859  -0.6795
 -0.6750  -0.6668  -0.6544  -0.6476  -0.6353  -0.6297  -0.6187  -0.6148
 -0.6102  -0.6009  -0.5934  -0.5755  -0.5712  -0.5633  -0.5566  -0.5545
 -0.5525  -0.5322  -0.5267  -0.5225  -0.5124  -0.5105  -0.5066  -0.4996
 -0.4854  -0.4832  -0.4759  -0.4745  -0.4715  -0.4664  -0.4578  -0.4444
 -0.4255  -0.3966  -0.3821  -0.3690  -0.3496  -0.3070  -0.2873  -0.2170

          Ground-State Mulliken Net Atomic Charges

     Atom                 Charge (a.u.)
  ----------------------------------------
      1 C                    -0.069657
      2 C                    -0.268851
      3 S                    -0.138116
      4 C                    -0.041610
      5 H                     0.192394
      6 C                    -0.053028
      7 C                     0.223790
      8 C                     0.221079
      9 C                    -0.069748
     10 C                    -0.051769
     11 O                    -0.336034
     12 O                    -0.344119
     13 C                    -0.082509
     14 H                     0.119371
     15 H                     0.092169
     16 H                     0.092724
     17 C                    -0.086715
     18 H                     0.122281
     19 H                     0.092232
     20 H                     0.089985
     21 C                    -0.267866
     22 S                    -0.086673
     23 C                     0.043664
     24 H                     0.208001
     25 C                    -0.086267
     26 S                     0.092218
     27 C                    -0.163741
     28 C                     0.009550
     29 C                    -0.092378
     30 S                     0.025218
     31 C                    -0.151678
     32 C                     0.391804
     33 F                    -0.204237
     34 C                     0.446853
     35 O                    -0.461091
     36 O                    -0.301175
     37 C                    -0.058272
     38 H                     0.121606
     39 H                     0.095367
     40 H                     0.095334
     41 H                     0.218403
     42 H                     0.116308
     43 H                     0.113713
     44 H                     0.191472
  ----------------------------------------
  Sum of atomic charges =     0.000000

                    Cartesian Multipole Moments
 -----------------------------------------------------------------
    Charge (ESU x 10^10)
                 0.0000
    Dipole Moment (Debye)
         X       2.4683      Y       3.4013      Z       2.2810
       Tot       4.7817
    Quadrupole Moments (Debye-Ang)
        XX    -187.3183     XY      11.1706     YY    -185.8019
        XZ       4.1228     YZ      -4.4271     ZZ    -194.7658

 Total job time:  349.70s(wall), 10549.46s(cpu)
        *  Thank you very much for using Q-Chem.  Have a nice day.  *
