 Q-Chem 5.4, Q-Chem, Inc., Pleasanton, CA (2021)
 Q-Chem 5.4.0 for Intel X86 EM64T Linux

User input:
--------------------------------------------------------------
$molecule
0 1
C	0.217225	-8.517702	0.236226
C	-0.611939	-7.641575	-0.448921
S	1.413715	-7.638634	1.218777
C	-0.323572	-6.264785	-0.206907
H	-1.418739	-7.966081	-1.118185
C	0.768156	-6.072714	0.711285
C	1.215016	-4.787049	1.053725
C	-0.999917	-5.162801	-0.804258
C	-0.550033	-3.874817	-0.464908
C	0.541024	-3.683952	0.456457
O	-2.028811	-5.499772	-1.630752
O	2.249357	-4.459055	1.883064
C	2.586579	-5.329063	2.956754
H	3.262802	-4.755694	3.619069
H	3.124711	-6.238095	2.609423
H	1.686639	-5.637262	3.531667
C	-2.503251	-4.572261	-2.599073
H	-3.185356	-5.139743	-3.260097
H	-1.672937	-4.153131	-3.207034
H	-3.075213	-3.739531	-2.135214
C	0.828107	-2.306654	0.694410
S	-1.188794	-2.306501	-0.983256
C	0.000000	-1.435185	0.000000
H	1.632185	-1.978138	1.364851
C	0.000000	0.000000	0.000000
S	0.693394	0.581209	1.507541
C	1.897536	1.592607	0.718873
C	0.693330	0.580791	-1.067872
C	1.756758	1.476132	-0.686410
S	0.508573	0.422041	-2.805516
C	1.846879	1.552232	-3.054530
C	2.387897	2.009402	-1.862551
F	3.408741	2.872264	-1.819088
C	2.191300	1.838768	-4.456084
O	1.606694	1.337806	-5.406510
O	3.221062	2.712584	-4.569225
C	3.603677	3.026817	-5.916207
H	4.442623	3.739898	-5.833064
H	2.758956	3.483875	-6.470168
H	3.921969	2.114070	-6.459293
H	2.604650	2.187790	1.306486
H	0.792084	-9.143623	-0.456457
H	-0.352973	-9.149441	0.927480
H	0.688477	-1.443175	-0.832067
$end

$rem
JOBTYPE		SP
EXCHANGE	HF
CORRELATION	pRIMP2
BASIS		cc-pvtz
METHOD		rimp2
AUX_BASIS	rimp2-cc-pvtz
SOLVENT_METHOD	PCM
PURECART	11111
SYMMETRY	false
MEM_TOTAL	110000
SCF_CONVERGENCE = 6
THRESH=10
GUI = 2
$end

$solvent
dielectric 4.90
$end
--------------------------------------------------------------

             Standard Nuclear Orientation (Angstroms)
    I     Atom           X                Y                Z
 ----------------------------------------------------------------
    1      C       0.2172250000    -8.5177020000     0.2362260000
    2      C      -0.6119390000    -7.6415750000    -0.4489210000
    3      S       1.4137150000    -7.6386340000     1.2187770000
    4      C      -0.3235720000    -6.2647850000    -0.2069070000
    5      H      -1.4187390000    -7.9660810000    -1.1181850000
    6      C       0.7681560000    -6.0727140000     0.7112850000
    7      C       1.2150160000    -4.7870490000     1.0537250000
    8      C      -0.9999170000    -5.1628010000    -0.8042580000
    9      C      -0.5500330000    -3.8748170000    -0.4649080000
   10      C       0.5410240000    -3.6839520000     0.4564570000
   11      O      -2.0288110000    -5.4997720000    -1.6307520000
   12      O       2.2493570000    -4.4590550000     1.8830640000
   13      C       2.5865790000    -5.3290630000     2.9567540000
   14      H       3.2628020000    -4.7556940000     3.6190690000
   15      H       3.1247110000    -6.2380950000     2.6094230000
   16      H       1.6866390000    -5.6372620000     3.5316670000
   17      C      -2.5032510000    -4.5722610000    -2.5990730000
   18      H      -3.1853560000    -5.1397430000    -3.2600970000
   19      H      -1.6729370000    -4.1531310000    -3.2070340000
   20      H      -3.0752130000    -3.7395310000    -2.1352140000
   21      C       0.8281070000    -2.3066540000     0.6944100000
   22      S      -1.1887940000    -2.3065010000    -0.9832560000
   23      C       0.0000000000    -1.4351850000     0.0000000000
   24      H       1.6321850000    -1.9781380000     1.3648510000
   25      C       0.0000000000     0.0000000000     0.0000000000
   26      S       0.6933940000     0.5812090000     1.5075410000
   27      C       1.8975360000     1.5926070000     0.7188730000
   28      C       0.6933300000     0.5807910000    -1.0678720000
   29      C       1.7567580000     1.4761320000    -0.6864100000
   30      S       0.5085730000     0.4220410000    -2.8055160000
   31      C       1.8468790000     1.5522320000    -3.0545300000
   32      C       2.3878970000     2.0094020000    -1.8625510000
   33      F       3.4087410000     2.8722640000    -1.8190880000
   34      C       2.1913000000     1.8387680000    -4.4560840000
   35      O       1.6066940000     1.3378060000    -5.4065100000
   36      O       3.2210620000     2.7125840000    -4.5692250000
   37      C       3.6036770000     3.0268170000    -5.9162070000
   38      H       4.4426230000     3.7398980000    -5.8330640000
   39      H       2.7589560000     3.4838750000    -6.4701680000
   40      H       3.9219690000     2.1140700000    -6.4592930000
   41      H       2.6046500000     2.1877900000     1.3064860000
   42      H       0.7920840000    -9.1436230000    -0.4564570000
   43      H      -0.3529730000    -9.1494410000     0.9274800000
   44      H       0.6884770000    -1.4431750000    -0.8320670000
 ----------------------------------------------------------------

   11   -2755.2909943844      7.89e-07  Convergence criterion met
 Total energy in the final basis set =    -2755.2909943844
        RIMP2         total energy =     -2760.3941512372 a.u.

                    Orbital Energies (a.u.)
 --------------------------------------------------------------

 Alpha MOs
 -- Occupied --
-92.0162 -92.0093 -91.9711 -91.9560 -26.3468 -20.6162 -20.5867 -20.5839
-20.5627 -11.4113 -11.3874 -11.3250 -11.3116 -11.3080 -11.3024 -11.2997
-11.2898 -11.2888 -11.2853 -11.2826 -11.2821 -11.2805 -11.2751 -11.2725
-11.2697 -11.2558 -11.2532 -11.2473 -11.2311  -9.0152  -9.0090  -8.9737
 -8.9587  -6.6959  -6.6951  -6.6948  -6.6899  -6.6891  -6.6881  -6.6548
 -6.6539  -6.6527  -6.6399  -6.6390  -6.6380  -1.6637  -1.4688  -1.4088
 -1.4069  -1.3715  -1.2406  -1.2001  -1.1717  -1.1410  -1.0993  -1.0500
 -1.0434  -1.0277  -1.0008  -0.9948  -0.9666  -0.9566  -0.9481  -0.9417
 -0.8909  -0.8736  -0.8591  -0.8197  -0.7958  -0.7877  -0.7823  -0.7664
 -0.7592  -0.7344  -0.7284  -0.7127  -0.7023  -0.6928  -0.6862  -0.6799
 -0.6753  -0.6682  -0.6540  -0.6472  -0.6360  -0.6299  -0.6177  -0.6149
 -0.6098  -0.6022  -0.5933  -0.5773  -0.5702  -0.5625  -0.5571  -0.5555
 -0.5500  -0.5325  -0.5270  -0.5218  -0.5132  -0.5104  -0.5063  -0.4984
 -0.4855  -0.4841  -0.4765  -0.4743  -0.4713  -0.4646  -0.4568  -0.4436
 -0.4270  -0.3963  -0.3795  -0.3691  -0.3485  -0.3094  -0.2862  -0.2142

          Ground-State Mulliken Net Atomic Charges

     Atom                 Charge (a.u.)
  ----------------------------------------
      1 C                    -0.069000
      2 C                    -0.276559
      3 S                    -0.141345
      4 C                    -0.039454
      5 H                     0.191486
      6 C                    -0.054100
      7 C                     0.224862
      8 C                     0.217492
      9 C                    -0.063510
     10 C                    -0.062616
     11 O                    -0.336173
     12 O                    -0.344571
     13 C                    -0.082569
     14 H                     0.119106
     15 H                     0.092241
     16 H                     0.092806
     17 C                    -0.087174
     18 H                     0.122174
     19 H                     0.091901
     20 H                     0.089935
     21 C                    -0.259430
     22 S                    -0.096007
     23 C                     0.052023
     24 H                     0.205133
     25 C                    -0.116774
     26 S                     0.099531
     27 C                    -0.154713
     28 C                     0.026701
     29 C                    -0.102778
     30 S                     0.042208
     31 C                    -0.151436
     32 C                     0.395336
     33 F                    -0.204007
     34 C                     0.447522
     35 O                    -0.461370
     36 O                    -0.301223
     37 C                    -0.058204
     38 H                     0.121664
     39 H                     0.095377
     40 H                     0.095445
     41 H                     0.220007
     42 H                     0.115193
     43 H                     0.112724
     44 H                     0.192142
  ----------------------------------------
  Sum of atomic charges =     0.000000

                    Cartesian Multipole Moments
 -----------------------------------------------------------------
    Charge (ESU x 10^10)
                -0.0000
    Dipole Moment (Debye)
         X       3.2370      Y       3.6937      Z       2.2688
       Tot       5.4101
    Quadrupole Moments (Debye-Ang)
        XX    -187.2131     XY      11.0486     YY    -192.8671
        XZ       2.1573     YZ      -3.0376     ZZ    -191.0810

 Total job time:  323.93s(wall), 10558.60s(cpu)
        *  Thank you very much for using Q-Chem.  Have a nice day.  *
