 Q-Chem 5.4, Q-Chem, Inc., Pleasanton, CA (2021)
 Q-Chem 5.4.0 for Intel X86 EM64T Linux

User input:
--------------------------------------------------------------
$molecule
0 1
C	0.041330	-8.517702	-0.318247
C	0.049453	-7.641575	0.757333
S	0.024919	-7.638634	-1.866383
C	0.049488	-6.264785	0.380867
H	0.055368	-7.966081	1.805573
C	0.051115	-6.072714	-1.045647
C	0.026203	-4.787049	-1.608077
C	0.026637	-5.162801	1.282948
C	-0.002586	-3.874817	0.720187
C	0.001903	-3.683952	-0.707853
O	0.054867	-5.499772	2.602386
O	-0.003348	-4.459055	-2.933517
C	0.602384	-5.329063	-3.881999
H	0.675079	-4.755694	-4.825744
H	-0.009592	-6.238095	-4.070972
H	1.621263	-5.637262	-3.562152
C	-0.381947	-4.572261	3.588253
H	-0.449872	-5.139743	4.535674
H	-1.381388	-4.153131	3.342986
H	0.341040	-3.739531	3.728239
C	-0.000348	-2.306654	-1.080725
S	0.010924	-2.306501	1.542694
C	0.000000	-1.435185	0.000000
H	-0.003612	-1.978138	-2.127635
C	0.000000	0.000000	0.000000
S	0.452792	0.783312	1.507541
C	1.238397	2.145556	0.718873
C	0.452875	0.782898	-1.067872
C	1.145945	1.987956	-0.686410
S	0.333556	0.570531	-2.805516
C	1.204604	2.090290	-3.054530
C	1.556633	2.704929	-1.862551
F	2.220797	3.864903	-1.819088
C	1.430252	2.477345	-4.456084
O	1.052242	1.806648	-5.406510
O	2.099050	3.650663	-4.569225
C	2.351116	4.076808	-5.916207
H	2.895579	5.033821	-5.833064
H	1.401015	4.217390	-6.470168
H	2.962391	3.327969	-6.459293
H	1.699302	2.946693	1.306486
H	-0.858809	-9.143623	-0.313367
H	0.937378	-9.149441	-0.325780
H	-1.079945	-1.443175	0.007439
$end

$rem
JOBTYPE		SP
EXCHANGE	HF
CORRELATION	pRIMP2
BASIS		cc-pvtz
METHOD		rimp2
AUX_BASIS	rimp2-cc-pvtz
SOLVENT_METHOD	PCM
PURECART	11111
SYMMETRY	false
MEM_TOTAL	110000
SCF_CONVERGENCE = 6
THRESH=10
GUI = 2
$end

$solvent
dielectric 4.90
$end
--------------------------------------------------------------

             Standard Nuclear Orientation (Angstroms)
    I     Atom           X                Y                Z
 ----------------------------------------------------------------
    1      C       0.0413300000    -8.5177020000    -0.3182470000
    2      C       0.0494530000    -7.6415750000     0.7573330000
    3      S       0.0249190000    -7.6386340000    -1.8663830000
    4      C       0.0494880000    -6.2647850000     0.3808670000
    5      H       0.0553680000    -7.9660810000     1.8055730000
    6      C       0.0511150000    -6.0727140000    -1.0456470000
    7      C       0.0262030000    -4.7870490000    -1.6080770000
    8      C       0.0266370000    -5.1628010000     1.2829480000
    9      C      -0.0025860000    -3.8748170000     0.7201870000
   10      C       0.0019030000    -3.6839520000    -0.7078530000
   11      O       0.0548670000    -5.4997720000     2.6023860000
   12      O      -0.0033480000    -4.4590550000    -2.9335170000
   13      C       0.6023840000    -5.3290630000    -3.8819990000
   14      H       0.6750790000    -4.7556940000    -4.8257440000
   15      H      -0.0095920000    -6.2380950000    -4.0709720000
   16      H       1.6212630000    -5.6372620000    -3.5621520000
   17      C      -0.3819470000    -4.5722610000     3.5882530000
   18      H      -0.4498720000    -5.1397430000     4.5356740000
   19      H      -1.3813880000    -4.1531310000     3.3429860000
   20      H       0.3410400000    -3.7395310000     3.7282390000
   21      C      -0.0003480000    -2.3066540000    -1.0807250000
   22      S       0.0109240000    -2.3065010000     1.5426940000
   23      C       0.0000000000    -1.4351850000     0.0000000000
   24      H      -0.0036120000    -1.9781380000    -2.1276350000
   25      C       0.0000000000     0.0000000000     0.0000000000
   26      S       0.4527920000     0.7833120000     1.5075410000
   27      C       1.2383970000     2.1455560000     0.7188730000
   28      C       0.4528750000     0.7828980000    -1.0678720000
   29      C       1.1459450000     1.9879560000    -0.6864100000
   30      S       0.3335560000     0.5705310000    -2.8055160000
   31      C       1.2046040000     2.0902900000    -3.0545300000
   32      C       1.5566330000     2.7049290000    -1.8625510000
   33      F       2.2207970000     3.8649030000    -1.8190880000
   34      C       1.4302520000     2.4773450000    -4.4560840000
   35      O       1.0522420000     1.8066480000    -5.4065100000
   36      O       2.0990500000     3.6506630000    -4.5692250000
   37      C       2.3511160000     4.0768080000    -5.9162070000
   38      H       2.8955790000     5.0338210000    -5.8330640000
   39      H       1.4010150000     4.2173900000    -6.4701680000
   40      H       2.9623910000     3.3279690000    -6.4592930000
   41      H       1.6993020000     2.9466930000     1.3064860000
   42      H      -0.8588090000    -9.1436230000    -0.3133670000
   43      H       0.9373780000    -9.1494410000    -0.3257800000
   44      H      -1.0799450000    -1.4431750000     0.0074390000
 ----------------------------------------------------------------

   11   -2755.3195697401      8.68e-07  Convergence criterion met
 Total energy in the final basis set =    -2755.3195697401
        RIMP2         total energy =     -2760.4167575105 a.u.

                    Orbital Energies (a.u.)
 --------------------------------------------------------------

 Alpha MOs
 -- Occupied --
-92.0140 -91.9995 -91.9819 -91.9579 -26.3436 -20.6153 -20.5881 -20.5870
-20.5618 -11.4099 -11.3829 -11.3094 -11.3090 -11.3074 -11.3022 -11.2984
-11.2978 -11.2891 -11.2855 -11.2854 -11.2847 -11.2822 -11.2802 -11.2745
-11.2723 -11.2585 -11.2579 -11.2495 -11.2367  -9.0130  -8.9997  -8.9841
 -8.9605  -6.6938  -6.6931  -6.6926  -6.6807  -6.6799  -6.6788  -6.6652
 -6.6643  -6.6631  -6.6417  -6.6408  -6.6398  -1.6607  -1.4677  -1.4114
 -1.4088  -1.3704  -1.2316  -1.2028  -1.1739  -1.1381  -1.1004  -1.0473
 -1.0457  -1.0246  -1.0039  -0.9982  -0.9635  -0.9595  -0.9488  -0.9409
 -0.8949  -0.8704  -0.8645  -0.8104  -0.8011  -0.7905  -0.7835  -0.7675
 -0.7572  -0.7375  -0.7255  -0.7127  -0.6988  -0.6916  -0.6850  -0.6812
 -0.6742  -0.6626  -0.6569  -0.6488  -0.6392  -0.6312  -0.6199  -0.6148
 -0.6120  -0.5992  -0.5933  -0.5776  -0.5706  -0.5655  -0.5593  -0.5556
 -0.5433  -0.5355  -0.5305  -0.5288  -0.5138  -0.5097  -0.5081  -0.5006
 -0.4853  -0.4822  -0.4772  -0.4741  -0.4705  -0.4657  -0.4588  -0.4468
 -0.4332  -0.3935  -0.3864  -0.3708  -0.3501  -0.3001  -0.2883  -0.2156

          Ground-State Mulliken Net Atomic Charges

     Atom                 Charge (a.u.)
  ----------------------------------------
      1 C                    -0.069969
      2 C                    -0.261918
      3 S                    -0.136358
      4 C                    -0.047412
      5 H                     0.193254
      6 C                    -0.052607
      7 C                     0.228304
      8 C                     0.229413
      9 C                    -0.073527
     10 C                    -0.047747
     11 O                    -0.333811
     12 O                    -0.344579
     13 C                    -0.083311
     14 H                     0.121281
     15 H                     0.092496
     16 H                     0.092837
     17 C                    -0.088998
     18 H                     0.124827
     19 H                     0.092796
     20 H                     0.089772
     21 C                    -0.273626
     22 S                    -0.098497
     23 C                     0.090542
     24 H                     0.198368
     25 C                    -0.037851
     26 S                     0.086171
     27 C                    -0.206461
     28 C                    -0.018899
     29 C                    -0.099800
     30 S                     0.005615
     31 C                    -0.164665
     32 C                     0.409173
     33 F                    -0.206291
     34 C                     0.445647
     35 O                    -0.461016
     36 O                    -0.300872
     37 C                    -0.058499
     38 H                     0.121614
     39 H                     0.095138
     40 H                     0.095206
     41 H                     0.218163
     42 H                     0.117088
     43 H                     0.114813
     44 H                     0.204194
  ----------------------------------------
  Sum of atomic charges =     0.000000

                    Cartesian Multipole Moments
 -----------------------------------------------------------------
    Charge (ESU x 10^10)
                -0.0000
    Dipole Moment (Debye)
         X       0.7145      Y       2.2895      Z       3.1562
       Tot       3.9641
    Quadrupole Moments (Debye-Ang)
        XX    -195.9814     XY       6.8719     YY    -178.8599
        XZ      -9.4914     YZ     -10.7491     ZZ    -189.4110

 Total job time:  349.76s(wall), 11081.38s(cpu)
        *  Thank you very much for using Q-Chem.  Have a nice day.  *
