 Q-Chem 5.4, Q-Chem, Inc., Pleasanton, CA (2021)
 Q-Chem 5.4.0 for Intel X86 EM64T Linux

User input:
--------------------------------------------------------------
$molecule
0 1
C	0.147685	-8.517702	-0.284919
C	-0.212552	-7.641575	0.728574
S	0.661757	-7.638634	-1.745304
C	-0.083761	-6.264785	0.374824
H	-0.565513	-7.966081	1.715621
C	0.405665	-6.072714	-0.965104
C	0.574617	-4.787049	-1.502136
C	-0.413763	-5.162801	1.214687
C	-0.248748	-3.874817	0.675870
C	0.243888	-3.683952	-0.664513
O	-0.838511	-5.499772	2.464209
O	1.000176	-4.459055	-2.757750
C	1.893778	-5.329063	-3.441858
H	2.284868	-4.755694	-4.303826
H	1.383341	-6.238095	-3.828743
H	2.741817	-5.637262	-2.792824
C	-1.586168	-4.572261	3.241222
H	-1.974033	-5.139743	4.108274
H	-2.441448	-4.153131	2.668916
H	-0.954660	-3.739531	3.620041
C	0.369302	-2.306654	-1.015668
S	-0.517367	-2.306501	1.453394
C	0.000000	-1.435185	0.000000
H	0.724300	-1.978138	-2.000559
C	0.000000	0.000000	0.000000
S	0.000474	0.904764	1.507541
C	-0.000295	2.477305	0.718873
C	0.000752	0.904447	-1.067872
C	-0.001560	2.294593	-0.686410
S	0.003602	0.660872	-2.805516
C	-0.001928	2.412546	-3.054530
C	-0.004381	3.120854	-1.862551
F	-0.009185	4.457503	-1.819088
C	-0.000038	2.860570	-4.456084
O	0.007944	2.090724	-5.406510
O	-0.007501	4.211092	-4.569225
C	-0.002278	4.706177	-5.916207
H	-0.009265	5.807207	-5.833064
H	-0.895381	4.352875	-6.470168
H	0.901521	4.363301	-6.459293
H	-0.001708	3.401562	1.306486
H	-0.699838	-9.143623	-0.588198
H	0.992270	-9.149441	0.014470
H	-1.017360	-1.443175	-0.362373
$end

$rem
JOBTYPE		SP
EXCHANGE	HF
CORRELATION	pRIMP2
BASIS		cc-pvtz
METHOD		rimp2
AUX_BASIS	rimp2-cc-pvtz
SOLVENT_METHOD	PCM
PURECART	11111
SYMMETRY	false
MEM_TOTAL	110000
SCF_CONVERGENCE = 6
THRESH=10
GUI = 2
$end

$solvent
dielectric 4.90
$end
--------------------------------------------------------------

             Standard Nuclear Orientation (Angstroms)
    I     Atom           X                Y                Z
 ----------------------------------------------------------------
    1      C       0.1476850000    -8.5177020000    -0.2849190000
    2      C      -0.2125520000    -7.6415750000     0.7285740000
    3      S       0.6617570000    -7.6386340000    -1.7453040000
    4      C      -0.0837610000    -6.2647850000     0.3748240000
    5      H      -0.5655130000    -7.9660810000     1.7156210000
    6      C       0.4056650000    -6.0727140000    -0.9651040000
    7      C       0.5746170000    -4.7870490000    -1.5021360000
    8      C      -0.4137630000    -5.1628010000     1.2146870000
    9      C      -0.2487480000    -3.8748170000     0.6758700000
   10      C       0.2438880000    -3.6839520000    -0.6645130000
   11      O      -0.8385110000    -5.4997720000     2.4642090000
   12      O       1.0001760000    -4.4590550000    -2.7577500000
   13      C       1.8937780000    -5.3290630000    -3.4418580000
   14      H       2.2848680000    -4.7556940000    -4.3038260000
   15      H       1.3833410000    -6.2380950000    -3.8287430000
   16      H       2.7418170000    -5.6372620000    -2.7928240000
   17      C      -1.5861680000    -4.5722610000     3.2412220000
   18      H      -1.9740330000    -5.1397430000     4.1082740000
   19      H      -2.4414480000    -4.1531310000     2.6689160000
   20      H      -0.9546600000    -3.7395310000     3.6200410000
   21      C       0.3693020000    -2.3066540000    -1.0156680000
   22      S      -0.5173670000    -2.3065010000     1.4533940000
   23      C       0.0000000000    -1.4351850000     0.0000000000
   24      H       0.7243000000    -1.9781380000    -2.0005590000
   25      C       0.0000000000     0.0000000000     0.0000000000
   26      S       0.0004740000     0.9047640000     1.5075410000
   27      C      -0.0002950000     2.4773050000     0.7188730000
   28      C       0.0007520000     0.9044470000    -1.0678720000
   29      C      -0.0015600000     2.2945930000    -0.6864100000
   30      S       0.0036020000     0.6608720000    -2.8055160000
   31      C      -0.0019280000     2.4125460000    -3.0545300000
   32      C      -0.0043810000     3.1208540000    -1.8625510000
   33      F      -0.0091850000     4.4575030000    -1.8190880000
   34      C      -0.0000380000     2.8605700000    -4.4560840000
   35      O       0.0079440000     2.0907240000    -5.4065100000
   36      O      -0.0075010000     4.2110920000    -4.5692250000
   37      C      -0.0022780000     4.7061770000    -5.9162070000
   38      H      -0.0092650000     5.8072070000    -5.8330640000
   39      H      -0.8953810000     4.3528750000    -6.4701680000
   40      H       0.9015210000     4.3633010000    -6.4592930000
   41      H      -0.0017080000     3.4015620000     1.3064860000
   42      H      -0.6998380000    -9.1436230000    -0.5881980000
   43      H       0.9922700000    -9.1494410000     0.0144700000
   44      H      -1.0173600000    -1.4431750000    -0.3623730000
 ----------------------------------------------------------------

   11   -2755.3441622593      8.42e-07  Convergence criterion met
 Total energy in the final basis set =    -2755.3441622593
        RIMP2         total energy =     -2760.4345222128 a.u.

                    Orbital Energies (a.u.)
 --------------------------------------------------------------

 Alpha MOs
 -- Occupied --
-92.0151 -91.9966 -91.9827 -91.9595 -26.3428 -20.6150 -20.5894 -20.5876
-20.5615 -11.4096 -11.3816 -11.3121 -11.3114 -11.3101 -11.2992 -11.2983
-11.2916 -11.2889 -11.2861 -11.2857 -11.2849 -11.2847 -11.2828 -11.2748
-11.2737 -11.2612 -11.2599 -11.2512 -11.2405  -9.0137  -8.9968  -8.9849
 -8.9621  -6.6945  -6.6939  -6.6933  -6.6779  -6.6772  -6.6760  -6.6661
 -6.6652  -6.6639  -6.6433  -6.6424  -6.6414  -1.6599  -1.4674  -1.4126
 -1.4095  -1.3701  -1.2301  -1.2033  -1.1756  -1.1373  -1.1018  -1.0484
 -1.0452  -1.0232  -1.0048  -0.9995  -0.9629  -0.9595  -0.9498  -0.9408
 -0.8958  -0.8711  -0.8647  -0.8087  -0.8017  -0.7902  -0.7848  -0.7692
 -0.7571  -0.7379  -0.7248  -0.7101  -0.6998  -0.6944  -0.6848  -0.6815
 -0.6740  -0.6646  -0.6573  -0.6495  -0.6390  -0.6316  -0.6215  -0.6159
 -0.6124  -0.5982  -0.5937  -0.5769  -0.5720  -0.5654  -0.5605  -0.5521
 -0.5492  -0.5361  -0.5314  -0.5285  -0.5140  -0.5098  -0.5088  -0.5024
 -0.4855  -0.4827  -0.4765  -0.4737  -0.4700  -0.4664  -0.4629  -0.4486
 -0.4334  -0.3948  -0.3875  -0.3721  -0.3502  -0.2985  -0.2894  -0.2190

          Ground-State Mulliken Net Atomic Charges

     Atom                 Charge (a.u.)
  ----------------------------------------
      1 C                    -0.070723
      2 C                    -0.250665
      3 S                    -0.132086
      4 C                    -0.049927
      5 H                     0.194521
      6 C                    -0.051138
      7 C                     0.224928
      8 C                     0.235087
      9 C                    -0.077697
     10 C                    -0.028093
     11 O                    -0.333863
     12 O                    -0.343167
     13 C                    -0.083317
     14 H                     0.121178
     15 H                     0.092456
     16 H                     0.092873
     17 C                    -0.088603
     18 H                     0.124937
     19 H                     0.093443
     20 H                     0.090510
     21 C                    -0.329464
     22 S                    -0.094303
     23 C                     0.126947
     24 H                     0.200262
     25 C                    -0.047115
     26 S                     0.076109
     27 C                    -0.217049
     28 C                     0.026548
     29 C                    -0.120879
     30 S                    -0.011799
     31 C                    -0.160375
     32 C                     0.403160
     33 F                    -0.207511
     34 C                     0.444178
     35 O                    -0.460580
     36 O                    -0.300391
     37 C                    -0.058769
     38 H                     0.121560
     39 H                     0.095194
     40 H                     0.095148
     41 H                     0.217086
     42 H                     0.118706
     43 H                     0.116343
     44 H                     0.206339
  ----------------------------------------
  Sum of atomic charges =     0.000000

                    Cartesian Multipole Moments
 -----------------------------------------------------------------
    Charge (ESU x 10^10)
                 0.0000
    Dipole Moment (Debye)
         X      -0.7156      Y       1.4506      Z       3.0994
       Tot       3.4961
    Quadrupole Moments (Debye-Ang)
        XX    -194.5400     XY       1.5309     YY    -169.4489
        XZ      -9.2054     YZ     -11.8269     ZZ    -195.1964

 Total job time:  328.38s(wall), 10642.27s(cpu)
        *  Thank you very much for using Q-Chem.  Have a nice day.  *
