 Q-Chem 5.4, Q-Chem, Inc., Pleasanton, CA (2021)
 Q-Chem 5.4.0 for Intel X86 EM64T Linux

User input:
--------------------------------------------------------------
$molecule
0 1
C	0.318247	-8.517702	0.041330
C	-0.757333	-7.641575	0.049453
S	1.866383	-7.638634	0.024919
C	-0.380867	-6.264785	0.049488
H	-1.805573	-7.966081	0.055368
C	1.045647	-6.072714	0.051115
C	1.608077	-4.787049	0.026203
C	-1.282948	-5.162801	0.026637
C	-0.720187	-3.874817	-0.002586
C	0.707853	-3.683952	0.001903
O	-2.602386	-5.499772	0.054867
O	2.933517	-4.459055	-0.003348
C	3.881999	-5.329063	0.602384
H	4.825744	-4.755694	0.675079
H	4.070972	-6.238095	-0.009592
H	3.562152	-5.637262	1.621263
C	-3.588253	-4.572261	-0.381947
H	-4.535674	-5.139743	-0.449872
H	-3.342986	-4.153131	-1.381388
H	-3.728239	-3.739531	0.341040
C	1.080725	-2.306654	-0.000348
S	-1.542694	-2.306501	0.010924
C	-0.000000	-1.435185	-0.000000
H	2.127635	-1.978138	-0.003612
C	0.000000	0.000000	0.000000
S	0.382799	0.819795	1.507541
C	1.046687	2.245325	0.718873
C	0.382918	0.819389	-1.067872
C	0.968323	2.080267	-0.686410
S	0.282561	0.597432	-2.805516
C	1.017839	2.187324	-3.054530
C	1.314960	2.830306	-1.862551
F	1.875498	4.043751	-1.819088
C	1.208895	2.592573	-4.456084
O	0.890778	1.891482	-5.406510
O	1.772886	3.819715	-4.569225
C	1.986852	4.266207	-5.916207
H	2.445834	5.267032	-5.833064
H	1.028114	4.323448	-6.470168
H	2.661066	3.573494	-6.459293
H	1.436015	3.083584	1.306486
H	0.313367	-9.143623	-0.858809
H	0.325780	-9.149441	0.937378
H	-0.007439	-1.443175	-1.079945
$end

$rem
JOBTYPE		SP
EXCHANGE	HF
CORRELATION	pRIMP2
BASIS		cc-pvtz
METHOD		rimp2
AUX_BASIS	rimp2-cc-pvtz
SOLVENT_METHOD	PCM
PURECART	11111
SYMMETRY	false
MEM_TOTAL	110000
SCF_CONVERGENCE = 6
THRESH=10
GUI = 2
$end

$solvent
dielectric 4.90
$end
--------------------------------------------------------------

             Standard Nuclear Orientation (Angstroms)
    I     Atom           X                Y                Z
 ----------------------------------------------------------------
    1      C       0.3182470000    -8.5177020000     0.0413300000
    2      C      -0.7573330000    -7.6415750000     0.0494530000
    3      S       1.8663830000    -7.6386340000     0.0249190000
    4      C      -0.3808670000    -6.2647850000     0.0494880000
    5      H      -1.8055730000    -7.9660810000     0.0553680000
    6      C       1.0456470000    -6.0727140000     0.0511150000
    7      C       1.6080770000    -4.7870490000     0.0262030000
    8      C      -1.2829480000    -5.1628010000     0.0266370000
    9      C      -0.7201870000    -3.8748170000    -0.0025860000
   10      C       0.7078530000    -3.6839520000     0.0019030000
   11      O      -2.6023860000    -5.4997720000     0.0548670000
   12      O       2.9335170000    -4.4590550000    -0.0033480000
   13      C       3.8819990000    -5.3290630000     0.6023840000
   14      H       4.8257440000    -4.7556940000     0.6750790000
   15      H       4.0709720000    -6.2380950000    -0.0095920000
   16      H       3.5621520000    -5.6372620000     1.6212630000
   17      C      -3.5882530000    -4.5722610000    -0.3819470000
   18      H      -4.5356740000    -5.1397430000    -0.4498720000
   19      H      -3.3429860000    -4.1531310000    -1.3813880000
   20      H      -3.7282390000    -3.7395310000     0.3410400000
   21      C       1.0807250000    -2.3066540000    -0.0003480000
   22      S      -1.5426940000    -2.3065010000     0.0109240000
   23      C       0.0000000000    -1.4351850000     0.0000000000
   24      H       2.1276350000    -1.9781380000    -0.0036120000
   25      C       0.0000000000     0.0000000000     0.0000000000
   26      S       0.3827990000     0.8197950000     1.5075410000
   27      C       1.0466870000     2.2453250000     0.7188730000
   28      C       0.3829180000     0.8193890000    -1.0678720000
   29      C       0.9683230000     2.0802670000    -0.6864100000
   30      S       0.2825610000     0.5974320000    -2.8055160000
   31      C       1.0178390000     2.1873240000    -3.0545300000
   32      C       1.3149600000     2.8303060000    -1.8625510000
   33      F       1.8754980000     4.0437510000    -1.8190880000
   34      C       1.2088950000     2.5925730000    -4.4560840000
   35      O       0.8907780000     1.8914820000    -5.4065100000
   36      O       1.7728860000     3.8197150000    -4.5692250000
   37      C       1.9868520000     4.2662070000    -5.9162070000
   38      H       2.4458340000     5.2670320000    -5.8330640000
   39      H       1.0281140000     4.3234480000    -6.4701680000
   40      H       2.6610660000     3.5734940000    -6.4592930000
   41      H       1.4360150000     3.0835840000     1.3064860000
   42      H       0.3133670000    -9.1436230000    -0.8588090000
   43      H       0.3257800000    -9.1494410000     0.9373780000
   44      H      -0.0074390000    -1.4431750000    -1.0799450000
 ----------------------------------------------------------------

   11   -2755.3374605486      6.69e-07  Convergence criterion met
 Total energy in the final basis set =    -2755.3374605486
        RIMP2         total energy =     -2760.4277527442 a.u.

                    Orbital Energies (a.u.)
 --------------------------------------------------------------

 Alpha MOs
 -- Occupied --
-92.0111 -92.0024 -91.9736 -91.9579 -26.3452 -20.6156 -20.5869 -20.5859
-20.5620 -11.4104 -11.3852 -11.3161 -11.3086 -11.3076 -11.3056 -11.2990
-11.2958 -11.2894 -11.2860 -11.2835 -11.2827 -11.2814 -11.2783 -11.2726
-11.2711 -11.2576 -11.2572 -11.2493 -11.2361  -9.0101  -9.0025  -8.9759
 -8.9605  -6.6909  -6.6902  -6.6898  -6.6835  -6.6827  -6.6816  -6.6570
 -6.6561  -6.6549  -6.6418  -6.6408  -6.6398  -1.6622  -1.4681  -1.4096
 -1.4084  -1.3708  -1.2313  -1.2016  -1.1728  -1.1378  -1.1003  -1.0474
 -1.0449  -1.0242  -1.0024  -0.9962  -0.9632  -0.9582  -0.9483  -0.9416
 -0.8922  -0.8713  -0.8639  -0.8144  -0.7957  -0.7902  -0.7838  -0.7675
 -0.7592  -0.7347  -0.7269  -0.7110  -0.7010  -0.6943  -0.6855  -0.6794
 -0.6746  -0.6653  -0.6550  -0.6481  -0.6350  -0.6297  -0.6197  -0.6146
 -0.6108  -0.5997  -0.5927  -0.5766  -0.5711  -0.5649  -0.5570  -0.5544
 -0.5498  -0.5318  -0.5271  -0.5248  -0.5125  -0.5093  -0.5067  -0.5010
 -0.4851  -0.4819  -0.4756  -0.4748  -0.4703  -0.4678  -0.4593  -0.4454
 -0.4206  -0.4008  -0.3840  -0.3695  -0.3508  -0.3045  -0.2884  -0.2202

          Ground-State Mulliken Net Atomic Charges

     Atom                 Charge (a.u.)
  ----------------------------------------
      1 C                    -0.070115
      2 C                    -0.261592
      3 S                    -0.135810
      4 C                    -0.044342
      5 H                     0.193308
      6 C                    -0.052467
      7 C                     0.223321
      8 C                     0.227986
      9 C                    -0.083761
     10 C                    -0.044900
     11 O                    -0.335647
     12 O                    -0.343319
     13 C                    -0.082485
     14 H                     0.119792
     15 H                     0.091988
     16 H                     0.092544
     17 C                    -0.086055
     18 H                     0.122528
     19 H                     0.092201
     20 H                     0.090084
     21 C                    -0.250117
     22 S                    -0.075416
     23 C                     0.050973
     24 H                     0.207259
     25 C                    -0.076220
     26 S                     0.087790
     27 C                    -0.172693
     28 C                    -0.009336
     29 C                    -0.092956
     30 S                     0.010342
     31 C                    -0.158843
     32 C                     0.396956
     33 F                    -0.204953
     34 C                     0.445736
     35 O                    -0.461185
     36 O                    -0.301102
     37 C                    -0.058410
     38 H                     0.121535
     39 H                     0.095308
     40 H                     0.095268
     41 H                     0.217882
     42 H                     0.117157
     43 H                     0.114656
     44 H                     0.187112
  ----------------------------------------
  Sum of atomic charges =     0.000000

                    Cartesian Multipole Moments
 -----------------------------------------------------------------
    Charge (ESU x 10^10)
                -0.0000
    Dipole Moment (Debye)
         X       1.2734      Y       3.1420      Z       2.2775
       Tot       4.0842
    Quadrupole Moments (Debye-Ang)
        XX    -182.6447     XY       9.8659     YY    -178.1881
        XZ       2.5435     YZ      -7.0135     ZZ    -204.0845

 Total job time:  337.12s(wall), 11408.50s(cpu)
        *  Thank you very much for using Q-Chem.  Have a nice day.  *
