 Q-Chem 5.4, Q-Chem, Inc., Pleasanton, CA (2021)
 Q-Chem 5.4.0 for Intel X86 EM64T Linux

User input:
--------------------------------------------------------------
$molecule
0 1
C	-0.194917	-8.517702	0.254945
C	0.335839	-7.641575	-0.680596
S	-0.954772	-7.638634	1.603876
C	0.147576	-6.264785	-0.354585
H	0.854836	-7.966081	-1.591356
C	-0.567090	-6.072714	0.879999
C	-0.826731	-4.787049	1.379534
C	0.618405	-5.162801	-1.124384
C	0.362333	-3.874817	-0.622407
C	-0.355575	-3.683952	0.612067
O	1.253677	-5.499772	-2.281166
O	-1.463859	-4.459055	2.542174
C	-2.462679	-5.329063	3.060718
H	-2.997507	-4.755694	3.841678
H	-2.027179	-6.238095	3.530361
H	-3.185132	-5.637262	2.274283
C	2.124902	-4.572261	-2.916545
H	2.657438	-5.139743	-3.703073
H	2.867810	-4.153131	-2.204417
H	1.568770	-3.739531	-3.399269
C	-0.540061	-2.306654	0.936109
S	0.761887	-2.306501	-1.341474
C	0.000000	-1.435185	0.000000
H	-1.060690	-1.978138	1.844392
C	0.000000	0.000000	0.000000
S	0.000474	0.904764	1.507541
C	-0.000295	2.477305	0.718873
C	0.000752	0.904447	-1.067872
C	-0.001560	2.294593	-0.686410
S	0.003602	0.660872	-2.805516
C	-0.001928	2.412546	-3.054530
C	-0.004381	3.120854	-1.862551
F	-0.009185	4.457503	-1.819088
C	-0.000038	2.860570	-4.456084
O	0.007944	2.090724	-5.406510
O	-0.007501	4.211092	-4.569225
C	-0.002278	4.706177	-5.916207
H	-0.009265	5.807207	-5.833064
H	-0.895381	4.352875	-6.470168
H	0.901521	4.363301	-6.459293
H	-0.001708	3.401562	1.306486
H	0.587067	-9.143623	0.700788
H	-0.974683	-9.149441	-0.186556
H	0.938979	-1.443175	0.533530
$end

$rem
JOBTYPE		SP
EXCHANGE	HF
CORRELATION	pRIMP2
BASIS		cc-pvtz
METHOD		rimp2
AUX_BASIS	rimp2-cc-pvtz
SOLVENT_METHOD	PCM
PURECART	11111
SYMMETRY	false
MEM_TOTAL	110000
SCF_CONVERGENCE = 6
THRESH=10
GUI = 2
$end

$solvent
dielectric 4.90
$end
--------------------------------------------------------------

             Standard Nuclear Orientation (Angstroms)
    I     Atom           X                Y                Z
 ----------------------------------------------------------------
    1      C      -0.1949170000    -8.5177020000     0.2549450000
    2      C       0.3358390000    -7.6415750000    -0.6805960000
    3      S      -0.9547720000    -7.6386340000     1.6038760000
    4      C       0.1475760000    -6.2647850000    -0.3545850000
    5      H       0.8548360000    -7.9660810000    -1.5913560000
    6      C      -0.5670900000    -6.0727140000     0.8799990000
    7      C      -0.8267310000    -4.7870490000     1.3795340000
    8      C       0.6184050000    -5.1628010000    -1.1243840000
    9      C       0.3623330000    -3.8748170000    -0.6224070000
   10      C      -0.3555750000    -3.6839520000     0.6120670000
   11      O       1.2536770000    -5.4997720000    -2.2811660000
   12      O      -1.4638590000    -4.4590550000     2.5421740000
   13      C      -2.4626790000    -5.3290630000     3.0607180000
   14      H      -2.9975070000    -4.7556940000     3.8416780000
   15      H      -2.0271790000    -6.2380950000     3.5303610000
   16      H      -3.1851320000    -5.6372620000     2.2742830000
   17      C       2.1249020000    -4.5722610000    -2.9165450000
   18      H       2.6574380000    -5.1397430000    -3.7030730000
   19      H       2.8678100000    -4.1531310000    -2.2044170000
   20      H       1.5687700000    -3.7395310000    -3.3992690000
   21      C      -0.5400610000    -2.3066540000     0.9361090000
   22      S       0.7618870000    -2.3065010000    -1.3414740000
   23      C       0.0000000000    -1.4351850000     0.0000000000
   24      H      -1.0606900000    -1.9781380000     1.8443920000
   25      C       0.0000000000     0.0000000000     0.0000000000
   26      S       0.0004740000     0.9047640000     1.5075410000
   27      C      -0.0002950000     2.4773050000     0.7188730000
   28      C       0.0007520000     0.9044470000    -1.0678720000
   29      C      -0.0015600000     2.2945930000    -0.6864100000
   30      S       0.0036020000     0.6608720000    -2.8055160000
   31      C      -0.0019280000     2.4125460000    -3.0545300000
   32      C      -0.0043810000     3.1208540000    -1.8625510000
   33      F      -0.0091850000     4.4575030000    -1.8190880000
   34      C      -0.0000380000     2.8605700000    -4.4560840000
   35      O       0.0079440000     2.0907240000    -5.4065100000
   36      O      -0.0075010000     4.2110920000    -4.5692250000
   37      C      -0.0022780000     4.7061770000    -5.9162070000
   38      H      -0.0092650000     5.8072070000    -5.8330640000
   39      H      -0.8953810000     4.3528750000    -6.4701680000
   40      H       0.9015210000     4.3633010000    -6.4592930000
   41      H      -0.0017080000     3.4015620000     1.3064860000
   42      H       0.5870670000    -9.1436230000     0.7007880000
   43      H      -0.9746830000    -9.1494410000    -0.1865560000
   44      H       0.9389790000    -1.4431750000     0.5335300000
 ----------------------------------------------------------------

   11   -2755.3440854138      8.56e-07  Convergence criterion met
 Total energy in the final basis set =    -2755.3440854138
        RIMP2         total energy =     -2760.4331661954 a.u.

                    Orbital Energies (a.u.)
 --------------------------------------------------------------

 Alpha MOs
 -- Occupied --
-92.0144 -91.9941 -91.9808 -91.9594 -26.3420 -20.6145 -20.5881 -20.5880
-20.5611 -11.4089 -11.3805 -11.3100 -11.3099 -11.3094 -11.3032 -11.2970
-11.2928 -11.2886 -11.2847 -11.2847 -11.2842 -11.2835 -11.2834 -11.2747
-11.2734 -11.2606 -11.2594 -11.2509 -11.2395  -9.0132  -8.9944  -8.9829
 -8.9620  -6.6941  -6.6935  -6.6929  -6.6754  -6.6747  -6.6735  -6.6641
 -6.6632  -6.6619  -6.6433  -6.6423  -6.6413  -1.6592  -1.4669  -1.4115
 -1.4098  -1.3696  -1.2294  -1.2030  -1.1751  -1.1370  -1.1010  -1.0481
 -1.0437  -1.0239  -1.0047  -0.9981  -0.9632  -0.9573  -0.9493  -0.9416
 -0.8947  -0.8688  -0.8661  -0.8148  -0.7937  -0.7901  -0.7850  -0.7696
 -0.7563  -0.7378  -0.7242  -0.7138  -0.6972  -0.6896  -0.6843  -0.6809
 -0.6735  -0.6625  -0.6566  -0.6494  -0.6383  -0.6309  -0.6212  -0.6158
 -0.6110  -0.5992  -0.5931  -0.5765  -0.5713  -0.5652  -0.5593  -0.5580
 -0.5503  -0.5328  -0.5311  -0.5263  -0.5141  -0.5111  -0.5082  -0.5017
 -0.4849  -0.4783  -0.4765  -0.4738  -0.4694  -0.4677  -0.4610  -0.4480
 -0.4308  -0.3962  -0.3859  -0.3714  -0.3511  -0.2985  -0.2884  -0.2191

          Ground-State Mulliken Net Atomic Charges

     Atom                 Charge (a.u.)
  ----------------------------------------
      1 C                    -0.070488
      2 C                    -0.252333
      3 S                    -0.133146
      4 C                    -0.050298
      5 H                     0.194511
      6 C                    -0.050467
      7 C                     0.221243
      8 C                     0.232909
      9 C                    -0.073488
     10 C                    -0.020943
     11 O                    -0.334167
     12 O                    -0.343739
     13 C                    -0.082830
     14 H                     0.120076
     15 H                     0.092240
     16 H                     0.093303
     17 C                    -0.088800
     18 H                     0.124385
     19 H                     0.092865
     20 H                     0.092202
     21 C                    -0.333048
     22 S                    -0.096373
     23 C                     0.178660
     24 H                     0.198978
     25 C                    -0.078578
     26 S                     0.076522
     27 C                    -0.201737
     28 C                    -0.007080
     29 C                    -0.119536
     30 S                    -0.004472
     31 C                    -0.160362
     32 C                     0.404556
     33 F                    -0.208345
     34 C                     0.442844
     35 O                    -0.460154
     36 O                    -0.300456
     37 C                    -0.058849
     38 H                     0.121336
     39 H                     0.095200
     40 H                     0.094989
     41 H                     0.217223
     42 H                     0.118349
     43 H                     0.116136
     44 H                     0.201162
  ----------------------------------------
  Sum of atomic charges =     0.000000

                    Cartesian Multipole Moments
 -----------------------------------------------------------------
    Charge (ESU x 10^10)
                -0.0000
    Dipole Moment (Debye)
         X       0.6765      Y       1.7364      Z       3.1488
       Tot       3.6589
    Quadrupole Moments (Debye-Ang)
        XX    -191.3009     XY      -2.1272     YY    -170.7711
        XZ      -9.3051     YZ      -3.8205     ZZ    -198.5275

 Total job time:  329.95s(wall), 10548.65s(cpu)
        *  Thank you very much for using Q-Chem.  Have a nice day.  *
