 Q-Chem 5.4, Q-Chem, Inc., Pleasanton, CA (2021)
 Q-Chem 5.4.0 for Intel X86 EM64T Linux

User input:
--------------------------------------------------------------
$molecule
0 1
C	0.313191	-8.517702	-0.070009
C	-0.694746	-7.641575	0.305494
S	1.762350	-7.638634	-0.614924
C	-0.340973	-6.264785	0.176768
H	-1.677747	-7.966081	0.669571
C	1.000069	-6.072714	-0.309600
C	1.520060	-4.787049	-0.525372
C	-1.196466	-5.162801	0.463825
C	-0.677639	-3.874817	0.243888
C	0.665815	-3.683952	-0.240312
O	-2.426678	-5.499772	0.941626
O	2.755460	-4.459055	-1.006468
C	3.853913	-5.329063	-0.761666
H	4.765607	-4.755694	-1.016135
H	3.822182	-6.238095	-1.401368
H	3.901833	-5.637262	0.305161
C	-3.502489	-4.572261	0.868342
H	-4.416005	-5.139743	1.128551
H	-3.613841	-4.153131	-0.154712
H	-3.386756	-3.739531	1.595605
C	1.015430	-2.306654	-0.369957
S	-1.445922	-2.306501	0.537898
C	0.000000	-1.435185	0.000000
H	1.998088	-1.978138	-0.731088
C	0.000000	0.000000	0.000000
S	0.234628	0.873813	1.507541
C	0.640889	2.392969	0.718873
C	0.234815	0.873434	-1.067872
C	0.592377	2.216811	-0.686410
S	0.174526	0.637422	-2.805516
C	0.622551	2.330840	-3.054530
C	0.803505	3.015647	-1.862551
F	1.144815	4.307994	-1.819088
C	0.740334	2.763108	-4.456084
O	0.548793	2.017428	-5.406510
O	1.082665	4.069544	-4.569225
C	1.215848	4.546407	-5.916207
H	1.494066	5.611729	-5.833064
H	0.261736	4.436296	-6.470168
H	2.000108	3.981294	-6.459293
H	0.878739	3.286099	1.306486
H	0.000738	-9.143623	-0.914194
H	0.626735	-9.149441	0.769424
H	-0.376353	-1.443175	-1.012272
$end

$rem
JOBTYPE		SP
EXCHANGE	HF
CORRELATION	pRIMP2
BASIS		cc-pvtz
METHOD		rimp2
AUX_BASIS	rimp2-cc-pvtz
SOLVENT_METHOD	PCM
PURECART	11111
SYMMETRY	false
MEM_TOTAL	110000
SCF_CONVERGENCE = 6
THRESH=10
GUI = 2
$end

$solvent
dielectric 4.90
$end
--------------------------------------------------------------

             Standard Nuclear Orientation (Angstroms)
    I     Atom           X                Y                Z
 ----------------------------------------------------------------
    1      C       0.3131910000    -8.5177020000    -0.0700090000
    2      C      -0.6947460000    -7.6415750000     0.3054940000
    3      S       1.7623500000    -7.6386340000    -0.6149240000
    4      C      -0.3409730000    -6.2647850000     0.1767680000
    5      H      -1.6777470000    -7.9660810000     0.6695710000
    6      C       1.0000690000    -6.0727140000    -0.3096000000
    7      C       1.5200600000    -4.7870490000    -0.5253720000
    8      C      -1.1964660000    -5.1628010000     0.4638250000
    9      C      -0.6776390000    -3.8748170000     0.2438880000
   10      C       0.6658150000    -3.6839520000    -0.2403120000
   11      O      -2.4266780000    -5.4997720000     0.9416260000
   12      O       2.7554600000    -4.4590550000    -1.0064680000
   13      C       3.8539130000    -5.3290630000    -0.7616660000
   14      H       4.7656070000    -4.7556940000    -1.0161350000
   15      H       3.8221820000    -6.2380950000    -1.4013680000
   16      H       3.9018330000    -5.6372620000     0.3051610000
   17      C      -3.5024890000    -4.5722610000     0.8683420000
   18      H      -4.4160050000    -5.1397430000     1.1285510000
   19      H      -3.6138410000    -4.1531310000    -0.1547120000
   20      H      -3.3867560000    -3.7395310000     1.5956050000
   21      C       1.0154300000    -2.3066540000    -0.3699570000
   22      S      -1.4459220000    -2.3065010000     0.5378980000
   23      C       0.0000000000    -1.4351850000     0.0000000000
   24      H       1.9980880000    -1.9781380000    -0.7310880000
   25      C       0.0000000000     0.0000000000     0.0000000000
   26      S       0.2346280000     0.8738130000     1.5075410000
   27      C       0.6408890000     2.3929690000     0.7188730000
   28      C       0.2348150000     0.8734340000    -1.0678720000
   29      C       0.5923770000     2.2168110000    -0.6864100000
   30      S       0.1745260000     0.6374220000    -2.8055160000
   31      C       0.6225510000     2.3308400000    -3.0545300000
   32      C       0.8035050000     3.0156470000    -1.8625510000
   33      F       1.1448150000     4.3079940000    -1.8190880000
   34      C       0.7403340000     2.7631080000    -4.4560840000
   35      O       0.5487930000     2.0174280000    -5.4065100000
   36      O       1.0826650000     4.0695440000    -4.5692250000
   37      C       1.2158480000     4.5464070000    -5.9162070000
   38      H       1.4940660000     5.6117290000    -5.8330640000
   39      H       0.2617360000     4.4362960000    -6.4701680000
   40      H       2.0001080000     3.9812940000    -6.4592930000
   41      H       0.8787390000     3.2860990000     1.3064860000
   42      H       0.0007380000    -9.1436230000    -0.9141940000
   43      H       0.6267350000    -9.1494410000     0.7694240000
   44      H      -0.3763530000    -1.4431750000    -1.0122720000
 ----------------------------------------------------------------

   11   -2755.3444499928      6.86e-07  Convergence criterion met
 Total energy in the final basis set =    -2755.3444499928
        RIMP2         total energy =     -2760.4331982323 a.u.

                    Orbital Energies (a.u.)
 --------------------------------------------------------------

 Alpha MOs
 -- Occupied --
-92.0114 -92.0007 -91.9771 -91.9581 -26.3447 -20.6154 -20.5870 -20.5868
-20.5619 -11.4102 -11.3843 -11.3121 -11.3089 -11.3071 -11.3048 -11.3006
-11.2989 -11.2893 -11.2856 -11.2843 -11.2827 -11.2827 -11.2804 -11.2728
-11.2720 -11.2581 -11.2576 -11.2496 -11.2368  -9.0103  -9.0008  -8.9793
 -8.9607  -6.6911  -6.6904  -6.6900  -6.6818  -6.6811  -6.6800  -6.6604
 -6.6595  -6.6583  -6.6419  -6.6410  -6.6400  -1.6616  -1.4679  -1.4103
 -1.4088  -1.3706  -1.2301  -1.2025  -1.1733  -1.1372  -1.1008  -1.0467
 -1.0457  -1.0237  -1.0033  -0.9971  -0.9626  -0.9590  -0.9485  -0.9415
 -0.8932  -0.8712  -0.8646  -0.8124  -0.7973  -0.7902  -0.7843  -0.7678
 -0.7589  -0.7355  -0.7264  -0.7102  -0.7009  -0.6950  -0.6854  -0.6799
 -0.6745  -0.6650  -0.6555  -0.6484  -0.6355  -0.6304  -0.6199  -0.6148
 -0.6116  -0.5993  -0.5925  -0.5777  -0.5709  -0.5656  -0.5578  -0.5540
 -0.5477  -0.5317  -0.5300  -0.5262  -0.5129  -0.5087  -0.5071  -0.5017
 -0.4852  -0.4815  -0.4761  -0.4746  -0.4696  -0.4685  -0.4606  -0.4462
 -0.4230  -0.4004  -0.3850  -0.3699  -0.3509  -0.3025  -0.2892  -0.2206

          Ground-State Mulliken Net Atomic Charges

     Atom                 Charge (a.u.)
  ----------------------------------------
      1 C                    -0.070303
      2 C                    -0.260125
      3 S                    -0.135310
      4 C                    -0.045220
      5 H                     0.193301
      6 C                    -0.052735
      7 C                     0.222225
      8 C                     0.230531
      9 C                    -0.084294
     10 C                    -0.050045
     11 O                    -0.335303
     12 O                    -0.343033
     13 C                    -0.082702
     14 H                     0.120075
     15 H                     0.092165
     16 H                     0.092566
     17 C                    -0.086288
     18 H                     0.123060
     19 H                     0.092540
     20 H                     0.090109
     21 C                    -0.249226
     22 S                    -0.070308
     23 C                     0.063168
     24 H                     0.208561
     25 C                    -0.075657
     26 S                     0.088832
     27 C                    -0.178873
     28 C                    -0.010249
     29 C                    -0.102860
     30 S                     0.006978
     31 C                    -0.158009
     32 C                     0.398048
     33 F                    -0.205625
     34 C                     0.445655
     35 O                    -0.460984
     36 O                    -0.300832
     37 C                    -0.058431
     38 H                     0.121509
     39 H                     0.095246
     40 H                     0.095203
     41 H                     0.217576
     42 H                     0.117336
     43 H                     0.114910
     44 H                     0.186818
  ----------------------------------------
  Sum of atomic charges =     0.000000

                    Cartesian Multipole Moments
 -----------------------------------------------------------------
    Charge (ESU x 10^10)
                -0.0000
    Dipole Moment (Debye)
         X       0.4611      Y       2.9228      Z       2.3980
       Tot       3.8086
    Quadrupole Moments (Debye-Ang)
        XX    -182.2947     XY       7.6056     YY    -175.6517
        XZ      -2.2472     YZ      -8.7425     ZZ    -206.3580

 Total job time:  357.32s(wall), 11095.07s(cpu)
        *  Thank you very much for using Q-Chem.  Have a nice day.  *
