 Q-Chem 5.4, Q-Chem, Inc., Pleasanton, CA (2021)
 Q-Chem 5.4.0 for Intel X86 EM64T Linux

User input:
--------------------------------------------------------------
$molecule
0 1
C	-0.270358	-8.517702	0.172904
C	0.548363	-7.641575	-0.524688
S	-1.445750	-7.638634	1.180599
C	0.259951	-6.264785	-0.282727
H	1.347559	-7.966081	-1.203014
C	-0.833868	-6.072714	0.632972
C	-1.248701	-4.787049	1.013580
C	0.965673	-5.162801	-0.845068
C	0.553357	-3.874817	-0.460946
C	-0.543470	-3.683952	0.453541
O	1.958276	-5.499772	-1.714812
O	-2.245053	-4.459055	1.888193
C	-3.360989	-5.329063	2.033848
H	-4.130667	-4.755694	2.584788
H	-3.112380	-6.238095	2.624118
H	-3.770895	-5.637262	1.047748
C	2.994272	-4.572261	-2.013896
H	3.763700	-5.139743	-2.570853
H	3.448815	-4.153131	-1.090625
H	2.636780	-3.739531	-2.657717
C	-0.827659	-2.306654	0.694943
S	1.174750	-2.306501	-0.999993
C	0.000000	-1.435185	0.000000
H	-1.627541	-1.978138	1.370385
C	0.000000	0.000000	0.000000
S	0.452792	0.783312	1.507541
C	1.238397	2.145556	0.718873
C	0.452875	0.782898	-1.067872
C	1.145945	1.987956	-0.686410
S	0.333556	0.570531	-2.805516
C	1.204604	2.090290	-3.054530
C	1.556633	2.704929	-1.862551
F	2.220797	3.864903	-1.819088
C	1.430252	2.477345	-4.456084
O	1.052242	1.806648	-5.406510
O	2.099050	3.650663	-4.569225
C	2.351116	4.076808	-5.916207
H	2.895579	5.033821	-5.833064
H	1.401015	4.217390	-6.470168
H	2.962391	3.327969	-6.459293
H	1.699302	2.946693	1.306486
H	0.311979	-9.143623	0.859314
H	-0.852097	-9.149441	-0.508666
H	0.699874	-1.443175	0.822504
$end

$rem
JOBTYPE		SP
EXCHANGE	HF
CORRELATION	pRIMP2
BASIS		cc-pvtz
METHOD		rimp2
AUX_BASIS	rimp2-cc-pvtz
SOLVENT_METHOD	PCM
PURECART	11111
SYMMETRY	false
MEM_TOTAL	110000
SCF_CONVERGENCE = 6
THRESH=10
GUI = 2
$end

$solvent
dielectric 4.90
$end
--------------------------------------------------------------

             Standard Nuclear Orientation (Angstroms)
    I     Atom           X                Y                Z
 ----------------------------------------------------------------
    1      C      -0.2703580000    -8.5177020000     0.1729040000
    2      C       0.5483630000    -7.6415750000    -0.5246880000
    3      S      -1.4457500000    -7.6386340000     1.1805990000
    4      C       0.2599510000    -6.2647850000    -0.2827270000
    5      H       1.3475590000    -7.9660810000    -1.2030140000
    6      C      -0.8338680000    -6.0727140000     0.6329720000
    7      C      -1.2487010000    -4.7870490000     1.0135800000
    8      C       0.9656730000    -5.1628010000    -0.8450680000
    9      C       0.5533570000    -3.8748170000    -0.4609460000
   10      C      -0.5434700000    -3.6839520000     0.4535410000
   11      O       1.9582760000    -5.4997720000    -1.7148120000
   12      O      -2.2450530000    -4.4590550000     1.8881930000
   13      C      -3.3609890000    -5.3290630000     2.0338480000
   14      H      -4.1306670000    -4.7556940000     2.5847880000
   15      H      -3.1123800000    -6.2380950000     2.6241180000
   16      H      -3.7708950000    -5.6372620000     1.0477480000
   17      C       2.9942720000    -4.5722610000    -2.0138960000
   18      H       3.7637000000    -5.1397430000    -2.5708530000
   19      H       3.4488150000    -4.1531310000    -1.0906250000
   20      H       2.6367800000    -3.7395310000    -2.6577170000
   21      C      -0.8276590000    -2.3066540000     0.6949430000
   22      S       1.1747500000    -2.3065010000    -0.9999930000
   23      C       0.0000000000    -1.4351850000     0.0000000000
   24      H      -1.6275410000    -1.9781380000     1.3703850000
   25      C       0.0000000000     0.0000000000     0.0000000000
   26      S       0.4527920000     0.7833120000     1.5075410000
   27      C       1.2383970000     2.1455560000     0.7188730000
   28      C       0.4528750000     0.7828980000    -1.0678720000
   29      C       1.1459450000     1.9879560000    -0.6864100000
   30      S       0.3335560000     0.5705310000    -2.8055160000
   31      C       1.2046040000     2.0902900000    -3.0545300000
   32      C       1.5566330000     2.7049290000    -1.8625510000
   33      F       2.2207970000     3.8649030000    -1.8190880000
   34      C       1.4302520000     2.4773450000    -4.4560840000
   35      O       1.0522420000     1.8066480000    -5.4065100000
   36      O       2.0990500000     3.6506630000    -4.5692250000
   37      C       2.3511160000     4.0768080000    -5.9162070000
   38      H       2.8955790000     5.0338210000    -5.8330640000
   39      H       1.4010150000     4.2173900000    -6.4701680000
   40      H       2.9623910000     3.3279690000    -6.4592930000
   41      H       1.6993020000     2.9466930000     1.3064860000
   42      H       0.3119790000    -9.1436230000     0.8593140000
   43      H      -0.8520970000    -9.1494410000    -0.5086660000
   44      H       0.6998740000    -1.4431750000     0.8225040000
 ----------------------------------------------------------------

   11   -2755.3268939736      7.98e-07  Convergence criterion met
 Total energy in the final basis set =    -2755.3268939736
        RIMP2         total energy =     -2760.4192667371 a.u.

                    Orbital Energies (a.u.)
 --------------------------------------------------------------

 Alpha MOs
 -- Occupied --
-92.0127 -91.9981 -91.9774 -91.9575 -26.3435 -20.6150 -20.5870 -20.5862
-20.5615 -11.4095 -11.3827 -11.3142 -11.3086 -11.3064 -11.3010 -11.2986
-11.2977 -11.2889 -11.2854 -11.2838 -11.2827 -11.2821 -11.2781 -11.2718
-11.2704 -11.2575 -11.2560 -11.2491 -11.2355  -9.0122  -8.9982  -8.9795
 -8.9601  -6.6930  -6.6923  -6.6917  -6.6792  -6.6784  -6.6773  -6.6606
 -6.6597  -6.6584  -6.6414  -6.6405  -6.6394  -1.6606  -1.4674  -1.4098
 -1.4086  -1.3701  -1.2322  -1.2015  -1.1732  -1.1386  -1.0989  -1.0469
 -1.0438  -1.0256  -1.0030  -0.9957  -0.9640  -0.9573  -0.9482  -0.9410
 -0.8930  -0.8688  -0.8641  -0.8161  -0.7944  -0.7890  -0.7836  -0.7678
 -0.7565  -0.7377  -0.7255  -0.7159  -0.6962  -0.6882  -0.6847  -0.6798
 -0.6740  -0.6620  -0.6555  -0.6482  -0.6361  -0.6298  -0.6194  -0.6148
 -0.6108  -0.5997  -0.5919  -0.5764  -0.5714  -0.5636  -0.5600  -0.5569
 -0.5455  -0.5331  -0.5312  -0.5243  -0.5123  -0.5097  -0.5071  -0.5009
 -0.4848  -0.4808  -0.4759  -0.4737  -0.4690  -0.4669  -0.4592  -0.4464
 -0.4273  -0.3955  -0.3844  -0.3691  -0.3527  -0.2994  -0.2887  -0.2179

          Ground-State Mulliken Net Atomic Charges

     Atom                 Charge (a.u.)
  ----------------------------------------
      1 C                    -0.069895
      2 C                    -0.263941
      3 S                    -0.137488
      4 C                    -0.045330
      5 H                     0.193023
      6 C                    -0.048549
      7 C                     0.215740
      8 C                     0.222577
      9 C                    -0.071549
     10 C                    -0.029291
     11 O                    -0.334895
     12 O                    -0.343619
     13 C                    -0.082823
     14 H                     0.119671
     15 H                     0.092160
     16 H                     0.093051
     17 C                    -0.088332
     18 H                     0.123566
     19 H                     0.091608
     20 H                     0.091392
     21 C                    -0.293702
     22 S                    -0.082886
     23 C                     0.080819
     24 H                     0.203832
     25 C                    -0.022401
     26 S                     0.086785
     27 C                    -0.181187
     28 C                    -0.084392
     29 C                    -0.078190
     30 S                     0.026182
     31 C                    -0.154057
     32 C                     0.398410
     33 F                    -0.207123
     34 C                     0.444133
     35 O                    -0.460428
     36 O                    -0.300890
     37 C                    -0.058470
     38 H                     0.121382
     39 H                     0.095229
     40 H                     0.095103
     41 H                     0.217907
     42 H                     0.116747
     43 H                     0.114511
     44 H                     0.195609
  ----------------------------------------
  Sum of atomic charges =     0.000000

                    Cartesian Multipole Moments
 -----------------------------------------------------------------
    Charge (ESU x 10^10)
                -0.0000
    Dipole Moment (Debye)
         X       2.0021      Y       2.8511      Z       3.2021
       Tot       4.7319
    Quadrupole Moments (Debye-Ang)
        XX    -181.7615     XY       4.0335     YY    -180.8568
        XZ      -9.8963     YZ      -3.8028     ZZ    -203.5998

 Total job time:  346.50s(wall), 10996.67s(cpu)
        *  Thank you very much for using Q-Chem.  Have a nice day.  *
