 Q-Chem 5.4, Q-Chem, Inc., Pleasanton, CA (2021)
 Q-Chem 5.4.0 for Intel X86 EM64T Linux

User input:
--------------------------------------------------------------
$molecule
0 1
C	0.318247	-8.517702	0.041330
C	-0.757333	-7.641575	0.049453
S	1.866383	-7.638634	0.024919
C	-0.380867	-6.264785	0.049488
H	-1.805573	-7.966081	0.055368
C	1.045647	-6.072714	0.051115
C	1.608077	-4.787049	0.026203
C	-1.282948	-5.162801	0.026637
C	-0.720187	-3.874817	-0.002586
C	0.707853	-3.683952	0.001903
O	-2.602386	-5.499772	0.054867
O	2.933517	-4.459055	-0.003348
C	3.881999	-5.329063	0.602384
H	4.825744	-4.755694	0.675079
H	4.070972	-6.238095	-0.009592
H	3.562152	-5.637262	1.621263
C	-3.588253	-4.572261	-0.381947
H	-4.535674	-5.139743	-0.449872
H	-3.342986	-4.153131	-1.381388
H	-3.728239	-3.739531	0.341040
C	1.080725	-2.306654	-0.000348
S	-1.542694	-2.306501	0.010924
C	0.000000	-1.435185	0.000000
H	2.127635	-1.978138	-0.003612
C	0.000000	0.000000	0.000000
S	0.234628	0.873813	1.507541
C	0.640889	2.392969	0.718873
C	0.234815	0.873434	-1.067872
C	0.592377	2.216811	-0.686410
S	0.174526	0.637422	-2.805516
C	0.622551	2.330840	-3.054530
C	0.803505	3.015647	-1.862551
F	1.144815	4.307994	-1.819088
C	0.740334	2.763108	-4.456084
O	0.548793	2.017428	-5.406510
O	1.082665	4.069544	-4.569225
C	1.215848	4.546407	-5.916207
H	1.494066	5.611729	-5.833064
H	0.261736	4.436296	-6.470168
H	2.000108	3.981294	-6.459293
H	0.878739	3.286099	1.306486
H	0.313367	-9.143623	-0.858809
H	0.325780	-9.149441	0.937378
H	-0.007439	-1.443175	-1.079945
$end

$rem
JOBTYPE		SP
EXCHANGE	HF
CORRELATION	pRIMP2
BASIS		cc-pvtz
METHOD		rimp2
AUX_BASIS	rimp2-cc-pvtz
SOLVENT_METHOD	PCM
PURECART	11111
SYMMETRY	false
MEM_TOTAL	110000
SCF_CONVERGENCE = 6
THRESH=10
GUI = 2
$end

$solvent
dielectric 4.90
$end
--------------------------------------------------------------

             Standard Nuclear Orientation (Angstroms)
    I     Atom           X                Y                Z
 ----------------------------------------------------------------
    1      C       0.3182470000    -8.5177020000     0.0413300000
    2      C      -0.7573330000    -7.6415750000     0.0494530000
    3      S       1.8663830000    -7.6386340000     0.0249190000
    4      C      -0.3808670000    -6.2647850000     0.0494880000
    5      H      -1.8055730000    -7.9660810000     0.0553680000
    6      C       1.0456470000    -6.0727140000     0.0511150000
    7      C       1.6080770000    -4.7870490000     0.0262030000
    8      C      -1.2829480000    -5.1628010000     0.0266370000
    9      C      -0.7201870000    -3.8748170000    -0.0025860000
   10      C       0.7078530000    -3.6839520000     0.0019030000
   11      O      -2.6023860000    -5.4997720000     0.0548670000
   12      O       2.9335170000    -4.4590550000    -0.0033480000
   13      C       3.8819990000    -5.3290630000     0.6023840000
   14      H       4.8257440000    -4.7556940000     0.6750790000
   15      H       4.0709720000    -6.2380950000    -0.0095920000
   16      H       3.5621520000    -5.6372620000     1.6212630000
   17      C      -3.5882530000    -4.5722610000    -0.3819470000
   18      H      -4.5356740000    -5.1397430000    -0.4498720000
   19      H      -3.3429860000    -4.1531310000    -1.3813880000
   20      H      -3.7282390000    -3.7395310000     0.3410400000
   21      C       1.0807250000    -2.3066540000    -0.0003480000
   22      S      -1.5426940000    -2.3065010000     0.0109240000
   23      C       0.0000000000    -1.4351850000     0.0000000000
   24      H       2.1276350000    -1.9781380000    -0.0036120000
   25      C       0.0000000000     0.0000000000     0.0000000000
   26      S       0.2346280000     0.8738130000     1.5075410000
   27      C       0.6408890000     2.3929690000     0.7188730000
   28      C       0.2348150000     0.8734340000    -1.0678720000
   29      C       0.5923770000     2.2168110000    -0.6864100000
   30      S       0.1745260000     0.6374220000    -2.8055160000
   31      C       0.6225510000     2.3308400000    -3.0545300000
   32      C       0.8035050000     3.0156470000    -1.8625510000
   33      F       1.1448150000     4.3079940000    -1.8190880000
   34      C       0.7403340000     2.7631080000    -4.4560840000
   35      O       0.5487930000     2.0174280000    -5.4065100000
   36      O       1.0826650000     4.0695440000    -4.5692250000
   37      C       1.2158480000     4.5464070000    -5.9162070000
   38      H       1.4940660000     5.6117290000    -5.8330640000
   39      H       0.2617360000     4.4362960000    -6.4701680000
   40      H       2.0001080000     3.9812940000    -6.4592930000
   41      H       0.8787390000     3.2860990000     1.3064860000
   42      H       0.3133670000    -9.1436230000    -0.8588090000
   43      H       0.3257800000    -9.1494410000     0.9373780000
   44      H      -0.0074390000    -1.4431750000    -1.0799450000
 ----------------------------------------------------------------

   11   -2755.3446547660      6.73e-07  Convergence criterion met
 Total energy in the final basis set =    -2755.3446547660
        RIMP2         total energy =     -2760.4331368225 a.u.

                    Orbital Energies (a.u.)
 --------------------------------------------------------------

 Alpha MOs
 -- Occupied --
-92.0113 -92.0009 -91.9752 -91.9581 -26.3448 -20.6154 -20.5870 -20.5864
-20.5619 -11.4102 -11.3845 -11.3132 -11.3088 -11.3064 -11.3055 -11.2994
-11.2988 -11.2893 -11.2854 -11.2839 -11.2828 -11.2820 -11.2795 -11.2729
-11.2715 -11.2579 -11.2576 -11.2496 -11.2367  -9.0102  -9.0010  -8.9775
 -8.9607  -6.6910  -6.6904  -6.6899  -6.6820  -6.6813  -6.6802  -6.6586
 -6.6577  -6.6564  -6.6420  -6.6410  -6.6400  -1.6617  -1.4679  -1.4099
 -1.4087  -1.3706  -1.2301  -1.2021  -1.1731  -1.1372  -1.1006  -1.0468
 -1.0452  -1.0237  -1.0030  -0.9967  -0.9629  -0.9584  -0.9484  -0.9415
 -0.8927  -0.8711  -0.8645  -0.8138  -0.7956  -0.7902  -0.7843  -0.7678
 -0.7590  -0.7350  -0.7265  -0.7105  -0.7010  -0.6946  -0.6854  -0.6796
 -0.6745  -0.6651  -0.6552  -0.6483  -0.6348  -0.6301  -0.6199  -0.6148
 -0.6110  -0.5993  -0.5924  -0.5773  -0.5706  -0.5650  -0.5574  -0.5542
 -0.5496  -0.5317  -0.5285  -0.5254  -0.5128  -0.5089  -0.5069  -0.5013
 -0.4853  -0.4813  -0.4760  -0.4746  -0.4709  -0.4677  -0.4600  -0.4458
 -0.4213  -0.4010  -0.3847  -0.3698  -0.3506  -0.3031  -0.2889  -0.2208

          Ground-State Mulliken Net Atomic Charges

     Atom                 Charge (a.u.)
  ----------------------------------------
      1 C                    -0.070211
      2 C                    -0.259842
      3 S                    -0.135354
      4 C                    -0.044804
      5 H                     0.193498
      6 C                    -0.052273
      7 C                     0.223639
      8 C                     0.229488
      9 C                    -0.085489
     10 C                    -0.054875
     11 O                    -0.335438
     12 O                    -0.343202
     13 C                    -0.082524
     14 H                     0.119928
     15 H                     0.091978
     16 H                     0.092549
     17 C                    -0.086186
     18 H                     0.122685
     19 H                     0.092494
     20 H                     0.090138
     21 C                    -0.235231
     22 S                    -0.071517
     23 C                     0.054124
     24 H                     0.206738
     25 C                    -0.081850
     26 S                     0.087832
     27 C                    -0.177231
     28 C                     0.004719
     29 C                    -0.103800
     30 S                     0.003969
     31 C                    -0.159809
     32 C                     0.398793
     33 F                    -0.205460
     34 C                     0.444704
     35 O                    -0.461219
     36 O                    -0.300912
     37 C                    -0.058452
     38 H                     0.121495
     39 H                     0.095239
     40 H                     0.095216
     41 H                     0.217566
     42 H                     0.117354
     43 H                     0.114876
     44 H                     0.186658
  ----------------------------------------
  Sum of atomic charges =     0.000000

                    Cartesian Multipole Moments
 -----------------------------------------------------------------
    Charge (ESU x 10^10)
                -0.0000
    Dipole Moment (Debye)
         X       0.6755      Y       3.0114      Z       2.3393
       Tot       3.8726
    Quadrupole Moments (Debye-Ang)
        XX    -184.3889     XY       7.7283     YY    -175.6492
        XZ       3.7989     YZ      -7.4564     ZZ    -204.3608

 Total job time:  382.86s(wall), 11924.16s(cpu)
        *  Thank you very much for using Q-Chem.  Have a nice day.  *
