 Q-Chem 5.4, Q-Chem, Inc., Pleasanton, CA (2021)
 Q-Chem 5.4.0 for Intel X86 EM64T Linux

User input:
--------------------------------------------------------------
$molecule
0 1
C	-0.320589	-8.517702	0.014560
C	0.737240	-7.641575	-0.180211
S	-1.842356	-7.638634	0.299553
C	0.366488	-6.264785	-0.114873
H	1.768528	-7.966081	-0.368061
C	-1.038637	-6.072714	0.131236
C	-1.588197	-4.787049	0.253435
C	1.258831	-5.162801	-0.249014
C	0.709695	-3.874817	-0.122513
C	-0.697430	-3.683952	0.121043
O	2.553323	-5.499772	-0.505933
O	-2.888369	-4.459055	0.512697
C	-3.927625	-5.329063	0.080869
H	-4.869656	-4.755694	0.173159
H	-4.007459	-6.238095	0.716363
H	-3.789565	-5.637262	-0.978072
C	3.600064	-4.572261	-0.246949
H	4.544887	-5.139743	-0.344574
H	3.532074	-4.153131	0.779898
H	3.612378	-3.739531	-0.983261
C	-1.064246	-2.306654	0.188009
S	1.517360	-2.306501	-0.278644
C	-0.000000	-1.435185	-0.000000
H	-2.094685	-1.978138	0.373017
C	0.000000	0.000000	0.000000
S	0.079327	0.901280	1.507541
C	0.215617	2.467903	0.718873
C	0.079577	0.900940	-1.067872
C	0.198433	2.285998	-0.686410
S	0.061187	0.658044	-2.805516
C	0.208347	2.403534	-3.054530
C	0.267636	3.109360	-1.862551
F	0.379347	4.441341	-1.819088
C	0.249278	2.849688	-4.456084
O	0.190132	2.082076	-5.406510
O	0.359548	4.195721	-4.569225
C	0.407901	4.688467	-5.916207
H	0.496901	5.785916	-5.833064
H	-0.512596	4.414348	-6.470168
H	1.278377	4.268124	-6.459293
H	0.294764	3.388767	1.306486
H	-0.159475	-9.143623	0.900177
H	-0.483604	-9.149441	-0.866566
H	0.194856	-1.443175	1.062246
$end

$rem
JOBTYPE		SP
EXCHANGE	HF
CORRELATION	pRIMP2
BASIS		cc-pvtz
METHOD		rimp2
AUX_BASIS	rimp2-cc-pvtz
SOLVENT_METHOD	PCM
PURECART	11111
SYMMETRY	false
MEM_TOTAL	110000
SCF_CONVERGENCE = 6
THRESH=10
GUI = 2
$end

$solvent
dielectric 4.90
$end
--------------------------------------------------------------

             Standard Nuclear Orientation (Angstroms)
    I     Atom           X                Y                Z
 ----------------------------------------------------------------
    1      C      -0.3205890000    -8.5177020000     0.0145600000
    2      C       0.7372400000    -7.6415750000    -0.1802110000
    3      S      -1.8423560000    -7.6386340000     0.2995530000
    4      C       0.3664880000    -6.2647850000    -0.1148730000
    5      H       1.7685280000    -7.9660810000    -0.3680610000
    6      C      -1.0386370000    -6.0727140000     0.1312360000
    7      C      -1.5881970000    -4.7870490000     0.2534350000
    8      C       1.2588310000    -5.1628010000    -0.2490140000
    9      C       0.7096950000    -3.8748170000    -0.1225130000
   10      C      -0.6974300000    -3.6839520000     0.1210430000
   11      O       2.5533230000    -5.4997720000    -0.5059330000
   12      O      -2.8883690000    -4.4590550000     0.5126970000
   13      C      -3.9276250000    -5.3290630000     0.0808690000
   14      H      -4.8696560000    -4.7556940000     0.1731590000
   15      H      -4.0074590000    -6.2380950000     0.7163630000
   16      H      -3.7895650000    -5.6372620000    -0.9780720000
   17      C       3.6000640000    -4.5722610000    -0.2469490000
   18      H       4.5448870000    -5.1397430000    -0.3445740000
   19      H       3.5320740000    -4.1531310000     0.7798980000
   20      H       3.6123780000    -3.7395310000    -0.9832610000
   21      C      -1.0642460000    -2.3066540000     0.1880090000
   22      S       1.5173600000    -2.3065010000    -0.2786440000
   23      C       0.0000000000    -1.4351850000     0.0000000000
   24      H      -2.0946850000    -1.9781380000     0.3730170000
   25      C       0.0000000000     0.0000000000     0.0000000000
   26      S       0.0793270000     0.9012800000     1.5075410000
   27      C       0.2156170000     2.4679030000     0.7188730000
   28      C       0.0795770000     0.9009400000    -1.0678720000
   29      C       0.1984330000     2.2859980000    -0.6864100000
   30      S       0.0611870000     0.6580440000    -2.8055160000
   31      C       0.2083470000     2.4035340000    -3.0545300000
   32      C       0.2676360000     3.1093600000    -1.8625510000
   33      F       0.3793470000     4.4413410000    -1.8190880000
   34      C       0.2492780000     2.8496880000    -4.4560840000
   35      O       0.1901320000     2.0820760000    -5.4065100000
   36      O       0.3595480000     4.1957210000    -4.5692250000
   37      C       0.4079010000     4.6884670000    -5.9162070000
   38      H       0.4969010000     5.7859160000    -5.8330640000
   39      H      -0.5125960000     4.4143480000    -6.4701680000
   40      H       1.2783770000     4.2681240000    -6.4592930000
   41      H       0.2947640000     3.3887670000     1.3064860000
   42      H      -0.1594750000    -9.1436230000     0.9001770000
   43      H      -0.4836040000    -9.1494410000    -0.8665660000
   44      H       0.1948560000    -1.4431750000     1.0622460000
 ----------------------------------------------------------------

   11   -2755.3449096328      7.48e-07  Convergence criterion met
 Total energy in the final basis set =    -2755.3449096328
        RIMP2         total energy =     -2760.4316362345 a.u.

                    Orbital Energies (a.u.)
 --------------------------------------------------------------

 Alpha MOs
 -- Occupied --
-92.0178 -91.9980 -91.9769 -91.9576 -26.3434 -20.6149 -20.5870 -20.5863
-20.5614 -11.4095 -11.3824 -11.3115 -11.3087 -11.3063 -11.3000 -11.2986
-11.2979 -11.2889 -11.2852 -11.2840 -11.2826 -11.2825 -11.2792 -11.2721
-11.2720 -11.2577 -11.2565 -11.2491 -11.2357  -9.0164  -8.9981  -8.9791
 -8.9602  -6.6971  -6.6965  -6.6960  -6.6791  -6.6783  -6.6772  -6.6602
 -6.6593  -6.6580  -6.6415  -6.6406  -6.6395  -1.6605  -1.4674  -1.4098
 -1.4086  -1.3701  -1.2285  -1.2024  -1.1731  -1.1376  -1.0993  -1.0457
 -1.0439  -1.0247  -1.0033  -0.9964  -0.9629  -0.9583  -0.9480  -0.9406
 -0.8928  -0.8685  -0.8664  -0.8143  -0.7972  -0.7890  -0.7843  -0.7675
 -0.7567  -0.7376  -0.7254  -0.7168  -0.6968  -0.6863  -0.6846  -0.6794
 -0.6740  -0.6604  -0.6557  -0.6483  -0.6341  -0.6297  -0.6195  -0.6148
 -0.6108  -0.5991  -0.5915  -0.5768  -0.5713  -0.5637  -0.5589  -0.5552
 -0.5490  -0.5321  -0.5311  -0.5242  -0.5126  -0.5077  -0.5070  -0.5012
 -0.4855  -0.4815  -0.4764  -0.4738  -0.4702  -0.4677  -0.4608  -0.4462
 -0.4229  -0.3996  -0.3848  -0.3696  -0.3510  -0.3013  -0.2891  -0.2204

          Ground-State Mulliken Net Atomic Charges

     Atom                 Charge (a.u.)
  ----------------------------------------
      1 C                    -0.070068
      2 C                    -0.262672
      3 S                    -0.136836
      4 C                    -0.042973
      5 H                     0.193028
      6 C                    -0.053287
      7 C                     0.228027
      8 C                     0.222956
      9 C                    -0.076205
     10 C                    -0.058278
     11 O                    -0.335124
     12 O                    -0.343466
     13 C                    -0.082657
     14 H                     0.119865
     15 H                     0.091910
     16 H                     0.093179
     17 C                    -0.086310
     18 H                     0.122882
     19 H                     0.091598
     20 H                     0.090931
     21 C                    -0.249936
     22 S                    -0.071722
     23 C                     0.079669
     24 H                     0.203967
     25 C                    -0.104858
     26 S                     0.093057
     27 C                    -0.188699
     28 C                     0.029374
     29 C                    -0.113197
     30 S                     0.010526
     31 C                    -0.158072
     32 C                     0.400313
     33 F                    -0.207190
     34 C                     0.444402
     35 O                    -0.460449
     36 O                    -0.300597
     37 C                    -0.058642
     38 H                     0.121330
     39 H                     0.095201
     40 H                     0.095171
     41 H                     0.219192
     42 H                     0.116765
     43 H                     0.114678
     44 H                     0.183216
  ----------------------------------------
  Sum of atomic charges =     0.000000

                    Cartesian Multipole Moments
 -----------------------------------------------------------------
    Charge (ESU x 10^10)
                 0.0000
    Dipole Moment (Debye)
         X       0.4482      Y       3.2288      Z       3.4824
       Tot       4.7700
    Quadrupole Moments (Debye-Ang)
        XX    -183.8386     XY      -2.2498     YY    -176.6942
        XZ       2.2548     YZ      -6.6792     ZZ    -205.6797

 Total job time:  328.84s(wall), 10680.47s(cpu)
        *  Thank you very much for using Q-Chem.  Have a nice day.  *
