 Q-Chem 5.4, Q-Chem, Inc., Pleasanton, CA (2021)
 Q-Chem 5.4.0 for Intel X86 EM64T Linux

User input:
--------------------------------------------------------------
$molecule
0 1
C	-0.254945	-8.517702	-0.194917
C	0.680596	-7.641575	0.335839
S	-1.603876	-7.638634	-0.954772
C	0.354585	-6.264785	0.147576
H	1.591356	-7.966081	0.854836
C	-0.879999	-6.072714	-0.567090
C	-1.379534	-4.787049	-0.826731
C	1.124384	-5.162801	0.618405
C	0.622407	-3.874817	0.362333
C	-0.612067	-3.683952	-0.355575
O	2.281166	-5.499772	1.253677
O	-2.542174	-4.459055	-1.463859
C	-3.060718	-5.329063	-2.462679
H	-3.841678	-4.755694	-2.997507
H	-3.530361	-6.238095	-2.027179
H	-2.274283	-5.637262	-3.185132
C	2.916545	-4.572261	2.124902
H	3.703073	-5.139743	2.657438
H	2.204417	-4.153131	2.867810
H	3.399269	-3.739531	1.568770
C	-0.936109	-2.306654	-0.540061
S	1.341474	-2.306501	0.761887
C	-0.000000	-1.435185	-0.000000
H	-1.844392	-1.978138	-1.060690
C	0.000000	0.000000	0.000000
S	0.157577	0.890937	1.507541
C	0.429889	2.439720	0.718873
C	0.157797	0.890576	-1.067872
C	0.396915	2.260004	-0.686410
S	0.118307	0.650207	-2.805516
C	0.417036	2.376229	-3.054530
C	0.537616	3.074202	-1.862551
F	0.764992	4.391378	-1.819088
C	0.496696	2.817118	-4.456084
O	0.370874	2.057582	-5.406510
O	0.723861	4.148418	-4.569225
C	0.814976	4.635075	-5.916207
H	0.999286	5.720591	-5.833064
H	-0.125909	4.442226	-6.470168
H	1.645504	4.140465	-6.459293
H	0.588993	3.350182	1.306486
H	-0.700788	-9.143623	0.587067
H	0.186556	-9.149441	-0.974683
H	-0.533530	-1.443175	0.938979
$end

$rem
JOBTYPE		SP
EXCHANGE	HF
CORRELATION	pRIMP2
BASIS		cc-pvtz
METHOD		rimp2
AUX_BASIS	rimp2-cc-pvtz
SOLVENT_METHOD	PCM
PURECART	11111
SYMMETRY	false
MEM_TOTAL	110000
SCF_CONVERGENCE = 6
THRESH=10
GUI = 2
$end

$solvent
dielectric 4.90
$end
--------------------------------------------------------------

             Standard Nuclear Orientation (Angstroms)
    I     Atom           X                Y                Z
 ----------------------------------------------------------------
    1      C      -0.2549450000    -8.5177020000    -0.1949170000
    2      C       0.6805960000    -7.6415750000     0.3358390000
    3      S      -1.6038760000    -7.6386340000    -0.9547720000
    4      C       0.3545850000    -6.2647850000     0.1475760000
    5      H       1.5913560000    -7.9660810000     0.8548360000
    6      C      -0.8799990000    -6.0727140000    -0.5670900000
    7      C      -1.3795340000    -4.7870490000    -0.8267310000
    8      C       1.1243840000    -5.1628010000     0.6184050000
    9      C       0.6224070000    -3.8748170000     0.3623330000
   10      C      -0.6120670000    -3.6839520000    -0.3555750000
   11      O       2.2811660000    -5.4997720000     1.2536770000
   12      O      -2.5421740000    -4.4590550000    -1.4638590000
   13      C      -3.0607180000    -5.3290630000    -2.4626790000
   14      H      -3.8416780000    -4.7556940000    -2.9975070000
   15      H      -3.5303610000    -6.2380950000    -2.0271790000
   16      H      -2.2742830000    -5.6372620000    -3.1851320000
   17      C       2.9165450000    -4.5722610000     2.1249020000
   18      H       3.7030730000    -5.1397430000     2.6574380000
   19      H       2.2044170000    -4.1531310000     2.8678100000
   20      H       3.3992690000    -3.7395310000     1.5687700000
   21      C      -0.9361090000    -2.3066540000    -0.5400610000
   22      S       1.3414740000    -2.3065010000     0.7618870000
   23      C       0.0000000000    -1.4351850000     0.0000000000
   24      H      -1.8443920000    -1.9781380000    -1.0606900000
   25      C       0.0000000000     0.0000000000     0.0000000000
   26      S       0.1575770000     0.8909370000     1.5075410000
   27      C       0.4298890000     2.4397200000     0.7188730000
   28      C       0.1577970000     0.8905760000    -1.0678720000
   29      C       0.3969150000     2.2600040000    -0.6864100000
   30      S       0.1183070000     0.6502070000    -2.8055160000
   31      C       0.4170360000     2.3762290000    -3.0545300000
   32      C       0.5376160000     3.0742020000    -1.8625510000
   33      F       0.7649920000     4.3913780000    -1.8190880000
   34      C       0.4966960000     2.8171180000    -4.4560840000
   35      O       0.3708740000     2.0575820000    -5.4065100000
   36      O       0.7238610000     4.1484180000    -4.5692250000
   37      C       0.8149760000     4.6350750000    -5.9162070000
   38      H       0.9992860000     5.7205910000    -5.8330640000
   39      H      -0.1259090000     4.4422260000    -6.4701680000
   40      H       1.6455040000     4.1404650000    -6.4592930000
   41      H       0.5889930000     3.3501820000     1.3064860000
   42      H      -0.7007880000    -9.1436230000     0.5870670000
   43      H       0.1865560000    -9.1494410000    -0.9746830000
   44      H      -0.5335300000    -1.4431750000     0.9389790000
 ----------------------------------------------------------------

   11   -2755.3434526880      7.87e-07  Convergence criterion met
 Total energy in the final basis set =    -2755.3434526880
        RIMP2         total energy =     -2760.4310377344 a.u.

                    Orbital Energies (a.u.)
 --------------------------------------------------------------

 Alpha MOs
 -- Occupied --
-92.0170 -91.9980 -91.9775 -91.9578 -26.3435 -20.6150 -20.5869 -20.5867
-20.5616 -11.4096 -11.3825 -11.3110 -11.3088 -11.3068 -11.3009 -11.2982
-11.2981 -11.2890 -11.2851 -11.2845 -11.2830 -11.2824 -11.2795 -11.2726
-11.2725 -11.2579 -11.2573 -11.2493 -11.2360  -9.0156  -8.9981  -8.9798
 -8.9604  -6.6964  -6.6959  -6.6953  -6.6791  -6.6784  -6.6772  -6.6609
 -6.6600  -6.6587  -6.6416  -6.6407  -6.6397  -1.6606  -1.4675  -1.4102
 -1.4086  -1.3702  -1.2287  -1.2026  -1.1734  -1.1377  -1.0996  -1.0458
 -1.0444  -1.0244  -1.0036  -0.9969  -0.9627  -0.9590  -0.9481  -0.9404
 -0.8933  -0.8685  -0.8666  -0.8126  -0.7998  -0.7885  -0.7846  -0.7674
 -0.7567  -0.7377  -0.7254  -0.7166  -0.6975  -0.6862  -0.6846  -0.6796
 -0.6740  -0.6607  -0.6560  -0.6483  -0.6343  -0.6307  -0.6196  -0.6147
 -0.6117  -0.5991  -0.5918  -0.5761  -0.5716  -0.5646  -0.5582  -0.5524
 -0.5486  -0.5331  -0.5310  -0.5270  -0.5131  -0.5076  -0.5069  -0.5013
 -0.4852  -0.4810  -0.4766  -0.4742  -0.4728  -0.4685  -0.4604  -0.4459
 -0.4255  -0.3984  -0.3851  -0.3698  -0.3511  -0.3006  -0.2887  -0.2197

          Ground-State Mulliken Net Atomic Charges

     Atom                 Charge (a.u.)
  ----------------------------------------
      1 C                    -0.070087
      2 C                    -0.262341
      3 S                    -0.135859
      4 C                    -0.043302
      5 H                     0.193052
      6 C                    -0.051909
      7 C                     0.225238
      8 C                     0.223048
      9 C                    -0.076214
     10 C                    -0.057001
     11 O                    -0.334890
     12 O                    -0.343622
     13 C                    -0.082612
     14 H                     0.120214
     15 H                     0.091761
     16 H                     0.093209
     17 C                    -0.086910
     18 H                     0.123118
     19 H                     0.091695
     20 H                     0.090367
     21 C                    -0.247773
     22 S                    -0.074570
     23 C                     0.068444
     24 H                     0.209513
     25 C                    -0.116055
     26 S                     0.088889
     27 C                    -0.183973
     28 C                     0.049959
     29 C                    -0.118277
     30 S                     0.005867
     31 C                    -0.156495
     32 C                     0.400807
     33 F                    -0.207168
     34 C                     0.443906
     35 O                    -0.460547
     36 O                    -0.300605
     37 C                    -0.058597
     38 H                     0.121384
     39 H                     0.095115
     40 H                     0.095247
     41 H                     0.218729
     42 H                     0.116906
     43 H                     0.114766
     44 H                     0.187574
  ----------------------------------------
  Sum of atomic charges =     0.000000

                    Cartesian Multipole Moments
 -----------------------------------------------------------------
    Charge (ESU x 10^10)
                 0.0000
    Dipole Moment (Debye)
         X       0.2790      Y       3.0419      Z       3.5192
       Tot       4.6600
    Quadrupole Moments (Debye-Ang)
        XX    -193.5080     XY      -0.3960     YY    -176.2595
        XZ       7.9214     YZ      -9.1357     ZZ    -195.6773

 Total job time:  361.03s(wall), 11285.91s(cpu)
        *  Thank you very much for using Q-Chem.  Have a nice day.  *
