 Q-Chem 5.4, Q-Chem, Inc., Pleasanton, CA (2021)
 Q-Chem 5.4.0 for Intel X86 EM64T Linux

User input:
--------------------------------------------------------------
$molecule
0 1
C	0.318247	-8.517702	0.041330
C	-0.757333	-7.641575	0.049453
S	1.866383	-7.638634	0.024919
C	-0.380867	-6.264785	0.049488
H	-1.805573	-7.966081	0.055368
C	1.045647	-6.072714	0.051115
C	1.608077	-4.787049	0.026203
C	-1.282948	-5.162801	0.026637
C	-0.720187	-3.874817	-0.002586
C	0.707853	-3.683952	0.001903
O	-2.602386	-5.499772	0.054867
O	2.933517	-4.459055	-0.003348
C	3.881999	-5.329063	0.602384
H	4.825744	-4.755694	0.675079
H	4.070972	-6.238095	-0.009592
H	3.562152	-5.637262	1.621263
C	-3.588253	-4.572261	-0.381947
H	-4.535674	-5.139743	-0.449872
H	-3.342986	-4.153131	-1.381388
H	-3.728239	-3.739531	0.341040
C	1.080725	-2.306654	-0.000348
S	-1.542694	-2.306501	0.010924
C	-0.000000	-1.435185	-0.000000
H	2.127635	-1.978138	-0.003612
C	0.000000	0.000000	0.000000
S	0.157577	0.890937	1.507541
C	0.429889	2.439720	0.718873
C	0.157797	0.890576	-1.067872
C	0.396915	2.260004	-0.686410
S	0.118307	0.650207	-2.805516
C	0.417036	2.376229	-3.054530
C	0.537616	3.074202	-1.862551
F	0.764992	4.391378	-1.819088
C	0.496696	2.817118	-4.456084
O	0.370874	2.057582	-5.406510
O	0.723861	4.148418	-4.569225
C	0.814976	4.635075	-5.916207
H	0.999286	5.720591	-5.833064
H	-0.125909	4.442226	-6.470168
H	1.645504	4.140465	-6.459293
H	0.588993	3.350182	1.306486
H	0.313367	-9.143623	-0.858809
H	0.325780	-9.149441	0.937378
H	-0.007439	-1.443175	-1.079945
$end

$rem
JOBTYPE		SP
EXCHANGE	HF
CORRELATION	pRIMP2
BASIS		cc-pvtz
METHOD		rimp2
AUX_BASIS	rimp2-cc-pvtz
SOLVENT_METHOD	PCM
PURECART	11111
SYMMETRY	false
MEM_TOTAL	110000
SCF_CONVERGENCE = 6
THRESH=10
GUI = 2
$end

$solvent
dielectric 4.90
$end
--------------------------------------------------------------

             Standard Nuclear Orientation (Angstroms)
    I     Atom           X                Y                Z
 ----------------------------------------------------------------
    1      C       0.3182470000    -8.5177020000     0.0413300000
    2      C      -0.7573330000    -7.6415750000     0.0494530000
    3      S       1.8663830000    -7.6386340000     0.0249190000
    4      C      -0.3808670000    -6.2647850000     0.0494880000
    5      H      -1.8055730000    -7.9660810000     0.0553680000
    6      C       1.0456470000    -6.0727140000     0.0511150000
    7      C       1.6080770000    -4.7870490000     0.0262030000
    8      C      -1.2829480000    -5.1628010000     0.0266370000
    9      C      -0.7201870000    -3.8748170000    -0.0025860000
   10      C       0.7078530000    -3.6839520000     0.0019030000
   11      O      -2.6023860000    -5.4997720000     0.0548670000
   12      O       2.9335170000    -4.4590550000    -0.0033480000
   13      C       3.8819990000    -5.3290630000     0.6023840000
   14      H       4.8257440000    -4.7556940000     0.6750790000
   15      H       4.0709720000    -6.2380950000    -0.0095920000
   16      H       3.5621520000    -5.6372620000     1.6212630000
   17      C      -3.5882530000    -4.5722610000    -0.3819470000
   18      H      -4.5356740000    -5.1397430000    -0.4498720000
   19      H      -3.3429860000    -4.1531310000    -1.3813880000
   20      H      -3.7282390000    -3.7395310000     0.3410400000
   21      C       1.0807250000    -2.3066540000    -0.0003480000
   22      S      -1.5426940000    -2.3065010000     0.0109240000
   23      C       0.0000000000    -1.4351850000     0.0000000000
   24      H       2.1276350000    -1.9781380000    -0.0036120000
   25      C       0.0000000000     0.0000000000     0.0000000000
   26      S       0.1575770000     0.8909370000     1.5075410000
   27      C       0.4298890000     2.4397200000     0.7188730000
   28      C       0.1577970000     0.8905760000    -1.0678720000
   29      C       0.3969150000     2.2600040000    -0.6864100000
   30      S       0.1183070000     0.6502070000    -2.8055160000
   31      C       0.4170360000     2.3762290000    -3.0545300000
   32      C       0.5376160000     3.0742020000    -1.8625510000
   33      F       0.7649920000     4.3913780000    -1.8190880000
   34      C       0.4966960000     2.8171180000    -4.4560840000
   35      O       0.3708740000     2.0575820000    -5.4065100000
   36      O       0.7238610000     4.1484180000    -4.5692250000
   37      C       0.8149760000     4.6350750000    -5.9162070000
   38      H       0.9992860000     5.7205910000    -5.8330640000
   39      H      -0.1259090000     4.4422260000    -6.4701680000
   40      H       1.6455040000     4.1404650000    -6.4592930000
   41      H       0.5889930000     3.3501820000     1.3064860000
   42      H       0.3133670000    -9.1436230000    -0.8588090000
   43      H       0.3257800000    -9.1494410000     0.9373780000
   44      H      -0.0074390000    -1.4431750000    -1.0799450000
 ----------------------------------------------------------------

   11   -2755.3469233022      6.75e-07  Convergence criterion met
 Total energy in the final basis set =    -2755.3469233022
        RIMP2         total energy =     -2760.4348103705 a.u.

                    Orbital Energies (a.u.)
 --------------------------------------------------------------

 Alpha MOs
 -- Occupied --
-92.0113 -92.0004 -91.9758 -91.9582 -26.3446 -20.6154 -20.5871 -20.5865
-20.5618 -11.4101 -11.3843 -11.3122 -11.3088 -11.3067 -11.3049 -11.3005
-11.2987 -11.2892 -11.2853 -11.2840 -11.2828 -11.2823 -11.2798 -11.2729
-11.2715 -11.2580 -11.2577 -11.2497 -11.2369  -9.0103  -9.0006  -8.9781
 -8.9608  -6.6910  -6.6904  -6.6900  -6.6816  -6.6809  -6.6797  -6.6592
 -6.6583  -6.6570  -6.6420  -6.6411  -6.6401  -1.6616  -1.4678  -1.4100
 -1.4087  -1.3705  -1.2297  -1.2022  -1.1732  -1.1370  -1.1007  -1.0467
 -1.0453  -1.0236  -1.0032  -0.9968  -0.9628  -0.9584  -0.9484  -0.9414
 -0.8929  -0.8711  -0.8647  -0.8137  -0.7955  -0.7901  -0.7844  -0.7679
 -0.7589  -0.7351  -0.7264  -0.7103  -0.7010  -0.6947  -0.6853  -0.6796
 -0.6744  -0.6650  -0.6553  -0.6484  -0.6348  -0.6302  -0.6200  -0.6148
 -0.6111  -0.5992  -0.5923  -0.5776  -0.5704  -0.5650  -0.5575  -0.5543
 -0.5494  -0.5316  -0.5293  -0.5256  -0.5128  -0.5088  -0.5070  -0.5014
 -0.4854  -0.4811  -0.4761  -0.4746  -0.4711  -0.4677  -0.4602  -0.4459
 -0.4216  -0.4011  -0.3849  -0.3699  -0.3506  -0.3026  -0.2891  -0.2209

          Ground-State Mulliken Net Atomic Charges

     Atom                 Charge (a.u.)
  ----------------------------------------
      1 C                    -0.070230
      2 C                    -0.259299
      3 S                    -0.135274
      4 C                    -0.044705
      5 H                     0.193549
      6 C                    -0.052298
      7 C                     0.224788
      8 C                     0.229093
      9 C                    -0.084708
     10 C                    -0.060367
     11 O                    -0.335316
     12 O                    -0.343175
     13 C                    -0.082554
     14 H                     0.119972
     15 H                     0.091986
     16 H                     0.092552
     17 C                    -0.086305
     18 H                     0.122749
     19 H                     0.092627
     20 H                     0.090180
     21 C                    -0.230482
     22 S                    -0.070905
     23 C                     0.057132
     24 H                     0.206266
     25 C                    -0.086762
     26 S                     0.087979
     27 C                    -0.177889
     28 C                     0.013007
     29 C                    -0.109118
     30 S                     0.001893
     31 C                    -0.160381
     32 C                     0.399709
     33 F                    -0.205644
     34 C                     0.444396
     35 O                    -0.461287
     36 O                    -0.300840
     37 C                    -0.058606
     38 H                     0.121497
     39 H                     0.095266
     40 H                     0.095211
     41 H                     0.217531
     42 H                     0.117401
     43 H                     0.114933
     44 H                     0.186427
  ----------------------------------------
  Sum of atomic charges =     0.000000

                    Cartesian Multipole Moments
 -----------------------------------------------------------------
    Charge (ESU x 10^10)
                -0.0000
    Dipole Moment (Debye)
         X       0.3974      Y       2.9713      Z       2.3603
       Tot       3.8155
    Quadrupole Moments (Debye-Ang)
        XX    -184.9491     XY       6.4803     YY    -174.8737
        XZ       4.4581     YZ      -7.5931     ZZ    -204.4531

 Total job time:  376.89s(wall), 11295.59s(cpu)
        *  Thank you very much for using Q-Chem.  Have a nice day.  *
