 Q-Chem 5.4, Q-Chem, Inc., Pleasanton, CA (2021)
 Q-Chem 5.4.0 for Intel X86 EM64T Linux

User input:
--------------------------------------------------------------
$molecule
0 1
C	0.296276	-8.517702	-0.123330
C	-0.631143	-7.641575	0.421494
S	1.628795	-7.638634	-0.911611
C	-0.305097	-6.264785	0.233291
H	-1.535988	-7.966081	0.950737
C	0.931114	-6.072714	-0.478557
C	1.405737	-4.787049	-0.781346
C	-1.097747	-5.162801	0.664542
C	-0.624993	-3.874817	0.357854
C	0.613970	-3.683952	-0.352278
O	-2.226300	-5.499772	1.348709
O	2.538827	-4.459055	-1.469658
C	3.663102	-5.329063	-1.419319
H	4.516756	-4.755694	-1.828237
H	3.520769	-6.238095	-2.043793
H	3.895546	-5.637262	-0.377021
C	-3.298492	-4.572261	1.463351
H	-4.152945	-5.139743	1.878237
H	-3.585804	-4.153131	0.475176
H	-3.058230	-3.739531	2.159469
C	0.935761	-2.306654	-0.540664
S	-1.330550	-2.306501	0.780808
C	0.000000	-1.435185	0.000000
H	1.840780	-1.978138	-1.066946
C	0.000000	0.000000	0.000000
S	0.693394	0.581209	1.507541
C	1.897536	1.592607	0.718873
C	0.693330	0.580791	-1.067872
C	1.756758	1.476132	-0.686410
S	0.508573	0.422041	-2.805516
C	1.846879	1.552232	-3.054530
C	2.387897	2.009402	-1.862551
F	3.408741	2.872264	-1.819088
C	2.191300	1.838768	-4.456084
O	1.606694	1.337806	-5.406510
O	3.221062	2.712584	-4.569225
C	3.603677	3.026817	-5.916207
H	4.442623	3.739898	-5.833064
H	2.758956	3.483875	-6.470168
H	3.921969	2.114070	-6.459293
H	2.604650	2.187790	1.306486
H	-0.158021	-9.143623	-0.900433
H	0.750822	-9.149441	0.648903
H	-0.546415	-1.443175	-0.931540
$end

$rem
JOBTYPE		SP
EXCHANGE	HF
CORRELATION	pRIMP2
BASIS		cc-pvtz
METHOD		rimp2
AUX_BASIS	rimp2-cc-pvtz
SOLVENT_METHOD	PCM
PURECART	11111
SYMMETRY	false
MEM_TOTAL	110000
SCF_CONVERGENCE = 6
THRESH=10
GUI = 2
$end

$solvent
dielectric 4.90
$end
--------------------------------------------------------------

             Standard Nuclear Orientation (Angstroms)
    I     Atom           X                Y                Z
 ----------------------------------------------------------------
    1      C       0.2962760000    -8.5177020000    -0.1233300000
    2      C      -0.6311430000    -7.6415750000     0.4214940000
    3      S       1.6287950000    -7.6386340000    -0.9116110000
    4      C      -0.3050970000    -6.2647850000     0.2332910000
    5      H      -1.5359880000    -7.9660810000     0.9507370000
    6      C       0.9311140000    -6.0727140000    -0.4785570000
    7      C       1.4057370000    -4.7870490000    -0.7813460000
    8      C      -1.0977470000    -5.1628010000     0.6645420000
    9      C      -0.6249930000    -3.8748170000     0.3578540000
   10      C       0.6139700000    -3.6839520000    -0.3522780000
   11      O      -2.2263000000    -5.4997720000     1.3487090000
   12      O       2.5388270000    -4.4590550000    -1.4696580000
   13      C       3.6631020000    -5.3290630000    -1.4193190000
   14      H       4.5167560000    -4.7556940000    -1.8282370000
   15      H       3.5207690000    -6.2380950000    -2.0437930000
   16      H       3.8955460000    -5.6372620000    -0.3770210000
   17      C      -3.2984920000    -4.5722610000     1.4633510000
   18      H      -4.1529450000    -5.1397430000     1.8782370000
   19      H      -3.5858040000    -4.1531310000     0.4751760000
   20      H      -3.0582300000    -3.7395310000     2.1594690000
   21      C       0.9357610000    -2.3066540000    -0.5406640000
   22      S      -1.3305500000    -2.3065010000     0.7808080000
   23      C       0.0000000000    -1.4351850000     0.0000000000
   24      H       1.8407800000    -1.9781380000    -1.0669460000
   25      C       0.0000000000     0.0000000000     0.0000000000
   26      S       0.6933940000     0.5812090000     1.5075410000
   27      C       1.8975360000     1.5926070000     0.7188730000
   28      C       0.6933300000     0.5807910000    -1.0678720000
   29      C       1.7567580000     1.4761320000    -0.6864100000
   30      S       0.5085730000     0.4220410000    -2.8055160000
   31      C       1.8468790000     1.5522320000    -3.0545300000
   32      C       2.3878970000     2.0094020000    -1.8625510000
   33      F       3.4087410000     2.8722640000    -1.8190880000
   34      C       2.1913000000     1.8387680000    -4.4560840000
   35      O       1.6066940000     1.3378060000    -5.4065100000
   36      O       3.2210620000     2.7125840000    -4.5692250000
   37      C       3.6036770000     3.0268170000    -5.9162070000
   38      H       4.4426230000     3.7398980000    -5.8330640000
   39      H       2.7589560000     3.4838750000    -6.4701680000
   40      H       3.9219690000     2.1140700000    -6.4592930000
   41      H       2.6046500000     2.1877900000     1.3064860000
   42      H      -0.1580210000    -9.1436230000    -0.9004330000
   43      H       0.7508220000    -9.1494410000     0.6489030000
   44      H      -0.5464150000    -1.4431750000    -0.9315400000
 ----------------------------------------------------------------

   11   -2755.3033062693      6.97e-07  Convergence criterion met
 Total energy in the final basis set =    -2755.3033062693
        RIMP2         total energy =     -2760.4017312090 a.u.

                    Orbital Energies (a.u.)
 --------------------------------------------------------------

 Alpha MOs
 -- Occupied --
-92.0089 -92.0086 -91.9725 -91.9565 -26.3471 -20.6164 -20.5864 -20.5847
-20.5629 -11.4116 -11.3877 -11.3286 -11.3172 -11.3079 -11.3035 -11.3004
-11.2899 -11.2891 -11.2829 -11.2823 -11.2804 -11.2800 -11.2752 -11.2704
-11.2704 -11.2563 -11.2542 -11.2479 -11.2328  -9.0087  -9.0084  -8.9747
 -8.9591  -6.6894  -6.6894  -6.6886  -6.6885  -6.6882  -6.6876  -6.6559
 -6.6550  -6.6538  -6.6403  -6.6394  -6.6384  -1.6640  -1.4690  -1.4087
 -1.4075  -1.3717  -1.2378  -1.2004  -1.1717  -1.1403  -1.0995  -1.0499
 -1.0437  -1.0265  -1.0012  -0.9951  -0.9646  -0.9588  -0.9481  -0.9418
 -0.8914  -0.8729  -0.8609  -0.8144  -0.7987  -0.7908  -0.7820  -0.7659
 -0.7600  -0.7348  -0.7287  -0.7126  -0.7007  -0.6936  -0.6865  -0.6796
 -0.6755  -0.6658  -0.6546  -0.6474  -0.6370  -0.6297  -0.6183  -0.6145
 -0.6111  -0.6018  -0.5926  -0.5760  -0.5731  -0.5661  -0.5563  -0.5558
 -0.5426  -0.5323  -0.5259  -0.5232  -0.5127  -0.5097  -0.5060  -0.5000
 -0.4861  -0.4819  -0.4768  -0.4747  -0.4682  -0.4654  -0.4572  -0.4442
 -0.4202  -0.3984  -0.3813  -0.3678  -0.3532  -0.3092  -0.2871  -0.2170

          Ground-State Mulliken Net Atomic Charges

     Atom                 Charge (a.u.)
  ----------------------------------------
      1 C                    -0.069509
      2 C                    -0.271234
      3 S                    -0.139456
      4 C                    -0.041874
      5 H                     0.191917
      6 C                    -0.053200
      7 C                     0.224262
      8 C                     0.223129
      9 C                    -0.072051
     10 C                    -0.049641
     11 O                    -0.335894
     12 O                    -0.343777
     13 C                    -0.082668
     14 H                     0.119450
     15 H                     0.092239
     16 H                     0.092496
     17 C                    -0.086859
     18 H                     0.123058
     19 H                     0.091657
     20 H                     0.089915
     21 C                    -0.275522
     22 S                    -0.097952
     23 C                     0.082280
     24 H                     0.208195
     25 C                    -0.143371
     26 S                     0.096408
     27 C                    -0.138180
     28 C                    -0.007520
     29 C                    -0.095821
     30 S                     0.049446
     31 C                    -0.153737
     32 C                     0.402343
     33 F                    -0.204058
     34 C                     0.447771
     35 O                    -0.461228
     36 O                    -0.301170
     37 C                    -0.058160
     38 H                     0.121710
     39 H                     0.095448
     40 H                     0.095503
     41 H                     0.219138
     42 H                     0.115860
     43 H                     0.113413
     44 H                     0.187245
  ----------------------------------------
  Sum of atomic charges =     0.000000

                    Cartesian Multipole Moments
 -----------------------------------------------------------------
    Charge (ESU x 10^10)
                 0.0000
    Dipole Moment (Debye)
         X       2.7023      Y       3.4888      Z       2.0002
       Tot       4.8451
    Quadrupole Moments (Debye-Ang)
        XX    -173.9826     XY      11.7695     YY    -189.7660
        XZ      -9.0852     YZ      -6.6305     ZZ    -204.2972

 Total job time:  357.65s(wall), 10774.18s(cpu)
        *  Thank you very much for using Q-Chem.  Have a nice day.  *
