 Q-Chem 5.4, Q-Chem, Inc., Pleasanton, CA (2021)
 Q-Chem 5.4.0 for Intel X86 EM64T Linux

User input:
--------------------------------------------------------------
$molecule
0 1
C	0.296276	-8.517702	-0.123330
C	-0.631143	-7.641575	0.421494
S	1.628795	-7.638634	-0.911611
C	-0.305097	-6.264785	0.233291
H	-1.535988	-7.966081	0.950737
C	0.931114	-6.072714	-0.478557
C	1.405737	-4.787049	-0.781346
C	-1.097747	-5.162801	0.664542
C	-0.624993	-3.874817	0.357854
C	0.613970	-3.683952	-0.352278
O	-2.226300	-5.499772	1.348709
O	2.538827	-4.459055	-1.469658
C	3.663102	-5.329063	-1.419319
H	4.516756	-4.755694	-1.828237
H	3.520769	-6.238095	-2.043793
H	3.895546	-5.637262	-0.377021
C	-3.298492	-4.572261	1.463351
H	-4.152945	-5.139743	1.878237
H	-3.585804	-4.153131	0.475176
H	-3.058230	-3.739531	2.159469
C	0.935761	-2.306654	-0.540664
S	-1.330550	-2.306501	0.780808
C	0.000000	-1.435185	0.000000
H	1.840780	-1.978138	-1.066946
C	0.000000	0.000000	0.000000
S	0.234628	0.873813	1.507541
C	0.640889	2.392969	0.718873
C	0.234815	0.873434	-1.067872
C	0.592377	2.216811	-0.686410
S	0.174526	0.637422	-2.805516
C	0.622551	2.330840	-3.054530
C	0.803505	3.015647	-1.862551
F	1.144815	4.307994	-1.819088
C	0.740334	2.763108	-4.456084
O	0.548793	2.017428	-5.406510
O	1.082665	4.069544	-4.569225
C	1.215848	4.546407	-5.916207
H	1.494066	5.611729	-5.833064
H	0.261736	4.436296	-6.470168
H	2.000108	3.981294	-6.459293
H	0.878739	3.286099	1.306486
H	-0.158021	-9.143623	-0.900433
H	0.750822	-9.149441	0.648903
H	-0.546415	-1.443175	-0.931540
$end

$rem
JOBTYPE		SP
EXCHANGE	HF
CORRELATION	pRIMP2
BASIS		cc-pvtz
METHOD		rimp2
AUX_BASIS	rimp2-cc-pvtz
SOLVENT_METHOD	PCM
PURECART	11111
SYMMETRY	false
MEM_TOTAL	110000
SCF_CONVERGENCE = 6
THRESH=10
GUI = 2
$end

$solvent
dielectric 4.90
$end
--------------------------------------------------------------

             Standard Nuclear Orientation (Angstroms)
    I     Atom           X                Y                Z
 ----------------------------------------------------------------
    1      C       0.2962760000    -8.5177020000    -0.1233300000
    2      C      -0.6311430000    -7.6415750000     0.4214940000
    3      S       1.6287950000    -7.6386340000    -0.9116110000
    4      C      -0.3050970000    -6.2647850000     0.2332910000
    5      H      -1.5359880000    -7.9660810000     0.9507370000
    6      C       0.9311140000    -6.0727140000    -0.4785570000
    7      C       1.4057370000    -4.7870490000    -0.7813460000
    8      C      -1.0977470000    -5.1628010000     0.6645420000
    9      C      -0.6249930000    -3.8748170000     0.3578540000
   10      C       0.6139700000    -3.6839520000    -0.3522780000
   11      O      -2.2263000000    -5.4997720000     1.3487090000
   12      O       2.5388270000    -4.4590550000    -1.4696580000
   13      C       3.6631020000    -5.3290630000    -1.4193190000
   14      H       4.5167560000    -4.7556940000    -1.8282370000
   15      H       3.5207690000    -6.2380950000    -2.0437930000
   16      H       3.8955460000    -5.6372620000    -0.3770210000
   17      C      -3.2984920000    -4.5722610000     1.4633510000
   18      H      -4.1529450000    -5.1397430000     1.8782370000
   19      H      -3.5858040000    -4.1531310000     0.4751760000
   20      H      -3.0582300000    -3.7395310000     2.1594690000
   21      C       0.9357610000    -2.3066540000    -0.5406640000
   22      S      -1.3305500000    -2.3065010000     0.7808080000
   23      C       0.0000000000    -1.4351850000     0.0000000000
   24      H       1.8407800000    -1.9781380000    -1.0669460000
   25      C       0.0000000000     0.0000000000     0.0000000000
   26      S       0.2346280000     0.8738130000     1.5075410000
   27      C       0.6408890000     2.3929690000     0.7188730000
   28      C       0.2348150000     0.8734340000    -1.0678720000
   29      C       0.5923770000     2.2168110000    -0.6864100000
   30      S       0.1745260000     0.6374220000    -2.8055160000
   31      C       0.6225510000     2.3308400000    -3.0545300000
   32      C       0.8035050000     3.0156470000    -1.8625510000
   33      F       1.1448150000     4.3079940000    -1.8190880000
   34      C       0.7403340000     2.7631080000    -4.4560840000
   35      O       0.5487930000     2.0174280000    -5.4065100000
   36      O       1.0826650000     4.0695440000    -4.5692250000
   37      C       1.2158480000     4.5464070000    -5.9162070000
   38      H       1.4940660000     5.6117290000    -5.8330640000
   39      H       0.2617360000     4.4362960000    -6.4701680000
   40      H       2.0001080000     3.9812940000    -6.4592930000
   41      H       0.8787390000     3.2860990000     1.3064860000
   42      H      -0.1580210000    -9.1436230000    -0.9004330000
   43      H       0.7508220000    -9.1494410000     0.6489030000
   44      H      -0.5464150000    -1.4431750000    -0.9315400000
 ----------------------------------------------------------------

   11   -2755.3438002589      7.07e-07  Convergence criterion met
 Total energy in the final basis set =    -2755.3438002589
        RIMP2         total energy =     -2760.4330654616 a.u.

                    Orbital Energies (a.u.)
 --------------------------------------------------------------

 Alpha MOs
 -- Occupied --
-92.0118 -92.0003 -91.9783 -91.9581 -26.3445 -20.6154 -20.5871 -20.5870
-20.5619 -11.4101 -11.3840 -11.3105 -11.3090 -11.3075 -11.3034 -11.3018
-11.2988 -11.2893 -11.2856 -11.2846 -11.2831 -11.2826 -11.2809 -11.2728
-11.2724 -11.2582 -11.2578 -11.2496 -11.2368  -9.0107  -9.0004  -8.9804
 -8.9607  -6.6915  -6.6908  -6.6904  -6.6815  -6.6807  -6.6796  -6.6616
 -6.6607  -6.6594  -6.6419  -6.6410  -6.6400  -1.6615  -1.4679  -1.4105
 -1.4088  -1.3706  -1.2301  -1.2027  -1.1735  -1.1372  -1.1009  -1.0465
 -1.0460  -1.0236  -1.0035  -0.9974  -0.9625  -0.9592  -0.9486  -0.9414
 -0.8935  -0.8712  -0.8646  -0.8116  -0.7982  -0.7902  -0.7844  -0.7678
 -0.7587  -0.7358  -0.7263  -0.7099  -0.7006  -0.6952  -0.6853  -0.6801
 -0.6745  -0.6649  -0.6558  -0.6485  -0.6359  -0.6305  -0.6199  -0.6149
 -0.6119  -0.5992  -0.5927  -0.5778  -0.5711  -0.5658  -0.5581  -0.5540
 -0.5468  -0.5318  -0.5309  -0.5264  -0.5129  -0.5086  -0.5073  -0.5019
 -0.4852  -0.4816  -0.4763  -0.4745  -0.4689  -0.4689  -0.4610  -0.4465
 -0.4250  -0.3992  -0.3851  -0.3700  -0.3509  -0.3017  -0.2893  -0.2201

          Ground-State Mulliken Net Atomic Charges

     Atom                 Charge (a.u.)
  ----------------------------------------
      1 C                    -0.070314
      2 C                    -0.260008
      3 S                    -0.135288
      4 C                    -0.045775
      5 H                     0.193298
      6 C                    -0.052866
      7 C                     0.221218
      8 C                     0.230689
      9 C                    -0.082232
     10 C                    -0.044812
     11 O                    -0.335068
     12 O                    -0.342922
     13 C                    -0.082696
     14 H                     0.120217
     15 H                     0.092097
     16 H                     0.092599
     17 C                    -0.086544
     18 H                     0.123342
     19 H                     0.092669
     20 H                     0.090010
     21 C                    -0.267033
     22 S                    -0.071883
     23 C                     0.073381
     24 H                     0.210374
     25 C                    -0.067650
     26 S                     0.090289
     27 C                    -0.183304
     28 C                    -0.019305
     29 C                    -0.102459
     30 S                     0.008344
     31 C                    -0.156717
     32 C                     0.397352
     33 F                    -0.205871
     34 C                     0.445730
     35 O                    -0.460831
     36 O                    -0.300770
     37 C                    -0.058425
     38 H                     0.121520
     39 H                     0.095242
     40 H                     0.095190
     41 H                     0.217282
     42 H                     0.117384
     43 H                     0.114949
     44 H                     0.189597
  ----------------------------------------
  Sum of atomic charges =     0.000000

                    Cartesian Multipole Moments
 -----------------------------------------------------------------
    Charge (ESU x 10^10)
                -0.0000
    Dipole Moment (Debye)
         X       0.3392      Y       2.7942      Z       2.4631
       Tot       3.7402
    Quadrupole Moments (Debye-Ang)
        XX    -182.9111     XY       7.3719     YY    -175.5740
        XZ      -5.4462     YZ      -9.3875     ZZ    -205.7065

 Total job time:  405.88s(wall), 12069.36s(cpu)
        *  Thank you very much for using Q-Chem.  Have a nice day.  *
