 Q-Chem 5.4, Q-Chem, Inc., Pleasanton, CA (2021)
 Q-Chem 5.4.0 for Intel X86 EM64T Linux

User input:
--------------------------------------------------------------
$molecule
0 1
C	0.014560	-8.517702	0.320589
C	-0.180211	-7.641575	-0.737240
S	0.299553	-7.638634	1.842356
C	-0.114873	-6.264785	-0.366488
H	-0.368061	-7.966081	-1.768528
C	0.131236	-6.072714	1.038637
C	0.253435	-4.787049	1.588197
C	-0.249014	-5.162801	-1.258831
C	-0.122513	-3.874817	-0.709695
C	0.121043	-3.683952	0.697430
O	-0.505933	-5.499772	-2.553323
O	0.512697	-4.459055	2.888369
C	0.080869	-5.329063	3.927625
H	0.173159	-4.755694	4.869656
H	0.716363	-6.238095	4.007459
H	-0.978072	-5.637262	3.789565
C	-0.246949	-4.572261	-3.600064
H	-0.344574	-5.139743	-4.544887
H	0.779898	-4.153131	-3.532074
H	-0.983261	-3.739531	-3.612378
C	0.188009	-2.306654	1.064246
S	-0.278644	-2.306501	-1.517360
C	0.000000	-1.435185	0.000000
H	0.373017	-1.978138	2.094685
C	0.000000	0.000000	0.000000
S	0.000474	0.904764	1.507541
C	-0.000295	2.477305	0.718873
C	0.000752	0.904447	-1.067872
C	-0.001560	2.294593	-0.686410
S	0.003602	0.660872	-2.805516
C	-0.001928	2.412546	-3.054530
C	-0.004381	3.120854	-1.862551
F	-0.009185	4.457503	-1.819088
C	-0.000038	2.860570	-4.456084
O	0.007944	2.090724	-5.406510
O	-0.007501	4.211092	-4.569225
C	-0.002278	4.706177	-5.916207
H	-0.009265	5.807207	-5.833064
H	-0.895381	4.352875	-6.470168
H	0.901521	4.363301	-6.459293
H	-0.001708	3.401562	1.306486
H	0.900177	-9.143623	0.159475
H	-0.866566	-9.149441	0.483604
H	1.062246	-1.443175	-0.194856
$end

$rem
JOBTYPE		SP
EXCHANGE	HF
CORRELATION	pRIMP2
BASIS		cc-pvtz
METHOD		rimp2
AUX_BASIS	rimp2-cc-pvtz
SOLVENT_METHOD	PCM
PURECART	11111
SYMMETRY	false
MEM_TOTAL	110000
SCF_CONVERGENCE = 6
THRESH=10
GUI = 2
$end

$solvent
dielectric 4.90
$end
--------------------------------------------------------------

             Standard Nuclear Orientation (Angstroms)
    I     Atom           X                Y                Z
 ----------------------------------------------------------------
    1      C       0.0145600000    -8.5177020000     0.3205890000
    2      C      -0.1802110000    -7.6415750000    -0.7372400000
    3      S       0.2995530000    -7.6386340000     1.8423560000
    4      C      -0.1148730000    -6.2647850000    -0.3664880000
    5      H      -0.3680610000    -7.9660810000    -1.7685280000
    6      C       0.1312360000    -6.0727140000     1.0386370000
    7      C       0.2534350000    -4.7870490000     1.5881970000
    8      C      -0.2490140000    -5.1628010000    -1.2588310000
    9      C      -0.1225130000    -3.8748170000    -0.7096950000
   10      C       0.1210430000    -3.6839520000     0.6974300000
   11      O      -0.5059330000    -5.4997720000    -2.5533230000
   12      O       0.5126970000    -4.4590550000     2.8883690000
   13      C       0.0808690000    -5.3290630000     3.9276250000
   14      H       0.1731590000    -4.7556940000     4.8696560000
   15      H       0.7163630000    -6.2380950000     4.0074590000
   16      H      -0.9780720000    -5.6372620000     3.7895650000
   17      C      -0.2469490000    -4.5722610000    -3.6000640000
   18      H      -0.3445740000    -5.1397430000    -4.5448870000
   19      H       0.7798980000    -4.1531310000    -3.5320740000
   20      H      -0.9832610000    -3.7395310000    -3.6123780000
   21      C       0.1880090000    -2.3066540000     1.0642460000
   22      S      -0.2786440000    -2.3065010000    -1.5173600000
   23      C       0.0000000000    -1.4351850000     0.0000000000
   24      H       0.3730170000    -1.9781380000     2.0946850000
   25      C       0.0000000000     0.0000000000     0.0000000000
   26      S       0.0004740000     0.9047640000     1.5075410000
   27      C      -0.0002950000     2.4773050000     0.7188730000
   28      C       0.0007520000     0.9044470000    -1.0678720000
   29      C      -0.0015600000     2.2945930000    -0.6864100000
   30      S       0.0036020000     0.6608720000    -2.8055160000
   31      C      -0.0019280000     2.4125460000    -3.0545300000
   32      C      -0.0043810000     3.1208540000    -1.8625510000
   33      F      -0.0091850000     4.4575030000    -1.8190880000
   34      C      -0.0000380000     2.8605700000    -4.4560840000
   35      O       0.0079440000     2.0907240000    -5.4065100000
   36      O      -0.0075010000     4.2110920000    -4.5692250000
   37      C      -0.0022780000     4.7061770000    -5.9162070000
   38      H      -0.0092650000     5.8072070000    -5.8330640000
   39      H      -0.8953810000     4.3528750000    -6.4701680000
   40      H       0.9015210000     4.3633010000    -6.4592930000
   41      H      -0.0017080000     3.4015620000     1.3064860000
   42      H       0.9001770000    -9.1436230000     0.1594750000
   43      H      -0.8665660000    -9.1494410000     0.4836040000
   44      H       1.0622460000    -1.4431750000    -0.1948560000
 ----------------------------------------------------------------

   11   -2755.3433202549      8.43e-07  Convergence criterion met
 Total energy in the final basis set =    -2755.3433202549
        RIMP2         total energy =     -2760.4344507732 a.u.

                    Orbital Energies (a.u.)
 --------------------------------------------------------------

 Alpha MOs
 -- Occupied --
-92.0140 -91.9944 -91.9811 -91.9602 -26.3419 -20.6146 -20.5888 -20.5884
-20.5611 -11.4090 -11.3802 -11.3124 -11.3112 -11.3103 -11.2985 -11.2971
-11.2910 -11.2887 -11.2854 -11.2848 -11.2848 -11.2842 -11.2838 -11.2757
-11.2736 -11.2622 -11.2600 -11.2516 -11.2411  -9.0126  -8.9947  -8.9834
 -8.9627  -6.6935  -6.6929  -6.6923  -6.6757  -6.6750  -6.6738  -6.6646
 -6.6637  -6.6624  -6.6440  -6.6430  -6.6420  -1.6590  -1.4670  -1.4121
 -1.4102  -1.3697  -1.2299  -1.2029  -1.1758  -1.1368  -1.1018  -1.0490
 -1.0439  -1.0236  -1.0053  -0.9986  -0.9637  -0.9570  -0.9498  -0.9420
 -0.8953  -0.8702  -0.8652  -0.8152  -0.7923  -0.7906  -0.7850  -0.7703
 -0.7568  -0.7375  -0.7240  -0.7101  -0.6967  -0.6950  -0.6844  -0.6819
 -0.6736  -0.6641  -0.6568  -0.6497  -0.6385  -0.6319  -0.6219  -0.6162
 -0.6113  -0.5997  -0.5934  -0.5766  -0.5714  -0.5665  -0.5604  -0.5567
 -0.5498  -0.5320  -0.5315  -0.5272  -0.5163  -0.5119  -0.5085  -0.5011
 -0.4849  -0.4803  -0.4760  -0.4742  -0.4709  -0.4654  -0.4602  -0.4480
 -0.4327  -0.3981  -0.3839  -0.3726  -0.3501  -0.2999  -0.2867  -0.2186

          Ground-State Mulliken Net Atomic Charges

     Atom                 Charge (a.u.)
  ----------------------------------------
      1 C                    -0.070775
      2 C                    -0.247261
      3 S                    -0.131706
      4 C                    -0.049739
      5 H                     0.195224
      6 C                    -0.049041
      7 C                     0.222172
      8 C                     0.231674
      9 C                    -0.067311
     10 C                    -0.031002
     11 O                    -0.333726
     12 O                    -0.344162
     13 C                    -0.082780
     14 H                     0.120202
     15 H                     0.092357
     16 H                     0.093197
     17 C                    -0.089770
     18 H                     0.125080
     19 H                     0.093911
     20 H                     0.091674
     21 C                    -0.320969
     22 S                    -0.114698
     23 C                     0.172092
     24 H                     0.195651
     25 C                    -0.026132
     26 S                     0.075373
     27 C                    -0.217720
     28 C                    -0.027918
     29 C                    -0.122048
     30 S                    -0.014158
     31 C                    -0.165113
     32 C                     0.410590
     33 F                    -0.208587
     34 C                     0.441840
     35 O                    -0.460839
     36 O                    -0.300404
     37 C                    -0.058925
     38 H                     0.121449
     39 H                     0.095195
     40 H                     0.094980
     41 H                     0.216483
     42 H                     0.119089
     43 H                     0.116771
     44 H                     0.209778
  ----------------------------------------
  Sum of atomic charges =     0.000000

                    Cartesian Multipole Moments
 -----------------------------------------------------------------
    Charge (ESU x 10^10)
                 0.0000
    Dipole Moment (Debye)
         X       0.6040      Y       1.1595      Z       2.6453
       Tot       2.9507
    Quadrupole Moments (Debye-Ang)
        XX    -201.5001     XY       0.7158     YY    -168.4557
        XZ      -2.6915     YZ      -3.2960     ZZ    -188.2383

 Total job time:  342.77s(wall), 10817.92s(cpu)
        *  Thank you very much for using Q-Chem.  Have a nice day.  *
