 Q-Chem 5.4, Q-Chem, Inc., Pleasanton, CA (2021)
 Q-Chem 5.4.0 for Intel X86 EM64T Linux

User input:
--------------------------------------------------------------
$molecule
0 1
C	-0.070009	-8.517702	-0.313191
C	0.305494	-7.641575	0.694746
S	-0.614924	-7.638634	-1.762350
C	0.176768	-6.264785	0.340973
H	0.669571	-7.966081	1.677747
C	-0.309600	-6.072714	-1.000069
C	-0.525372	-4.787049	-1.520060
C	0.463825	-5.162801	1.196466
C	0.243888	-3.874817	0.677639
C	-0.240312	-3.683952	-0.665815
O	0.941626	-5.499772	2.426678
O	-1.006468	-4.459055	-2.755460
C	-0.761666	-5.329063	-3.853913
H	-1.016135	-4.755694	-4.765607
H	-1.401368	-6.238095	-3.822182
H	0.305161	-5.637262	-3.901833
C	0.868342	-4.572261	3.502489
H	1.128551	-5.139743	4.416005
H	-0.154712	-4.153131	3.613841
H	1.595605	-3.739531	3.386756
C	-0.369957	-2.306654	-1.015430
S	0.537898	-2.306501	1.445922
C	-0.000000	-1.435185	-0.000000
H	-0.731088	-1.978138	-1.998088
C	0.000000	0.000000	0.000000
S	0.079327	0.901280	1.507541
C	0.215617	2.467903	0.718873
C	0.079577	0.900940	-1.067872
C	0.198433	2.285998	-0.686410
S	0.061187	0.658044	-2.805516
C	0.208347	2.403534	-3.054530
C	0.267636	3.109360	-1.862551
F	0.379347	4.441341	-1.819088
C	0.249278	2.849688	-4.456084
O	0.190132	2.082076	-5.406510
O	0.359548	4.195721	-4.569225
C	0.407901	4.688467	-5.916207
H	0.496901	5.785916	-5.833064
H	-0.512596	4.414348	-6.470168
H	1.278377	4.268124	-6.459293
H	0.294764	3.388767	1.306486
H	-0.914194	-9.143623	-0.000738
H	0.769424	-9.149441	-0.626735
H	-1.012272	-1.443175	0.376353
$end

$rem
JOBTYPE		SP
EXCHANGE	HF
CORRELATION	pRIMP2
BASIS		cc-pvtz
METHOD		rimp2
AUX_BASIS	rimp2-cc-pvtz
SOLVENT_METHOD	PCM
PURECART	11111
SYMMETRY	false
MEM_TOTAL	110000
SCF_CONVERGENCE = 6
THRESH=10
GUI = 2
$end

$solvent
dielectric 4.90
$end
--------------------------------------------------------------

             Standard Nuclear Orientation (Angstroms)
    I     Atom           X                Y                Z
 ----------------------------------------------------------------
    1      C      -0.0700090000    -8.5177020000    -0.3131910000
    2      C       0.3054940000    -7.6415750000     0.6947460000
    3      S      -0.6149240000    -7.6386340000    -1.7623500000
    4      C       0.1767680000    -6.2647850000     0.3409730000
    5      H       0.6695710000    -7.9660810000     1.6777470000
    6      C      -0.3096000000    -6.0727140000    -1.0000690000
    7      C      -0.5253720000    -4.7870490000    -1.5200600000
    8      C       0.4638250000    -5.1628010000     1.1964660000
    9      C       0.2438880000    -3.8748170000     0.6776390000
   10      C      -0.2403120000    -3.6839520000    -0.6658150000
   11      O       0.9416260000    -5.4997720000     2.4266780000
   12      O      -1.0064680000    -4.4590550000    -2.7554600000
   13      C      -0.7616660000    -5.3290630000    -3.8539130000
   14      H      -1.0161350000    -4.7556940000    -4.7656070000
   15      H      -1.4013680000    -6.2380950000    -3.8221820000
   16      H       0.3051610000    -5.6372620000    -3.9018330000
   17      C       0.8683420000    -4.5722610000     3.5024890000
   18      H       1.1285510000    -5.1397430000     4.4160050000
   19      H      -0.1547120000    -4.1531310000     3.6138410000
   20      H       1.5956050000    -3.7395310000     3.3867560000
   21      C      -0.3699570000    -2.3066540000    -1.0154300000
   22      S       0.5378980000    -2.3065010000     1.4459220000
   23      C       0.0000000000    -1.4351850000     0.0000000000
   24      H      -0.7310880000    -1.9781380000    -1.9980880000
   25      C       0.0000000000     0.0000000000     0.0000000000
   26      S       0.0793270000     0.9012800000     1.5075410000
   27      C       0.2156170000     2.4679030000     0.7188730000
   28      C       0.0795770000     0.9009400000    -1.0678720000
   29      C       0.1984330000     2.2859980000    -0.6864100000
   30      S       0.0611870000     0.6580440000    -2.8055160000
   31      C       0.2083470000     2.4035340000    -3.0545300000
   32      C       0.2676360000     3.1093600000    -1.8625510000
   33      F       0.3793470000     4.4413410000    -1.8190880000
   34      C       0.2492780000     2.8496880000    -4.4560840000
   35      O       0.1901320000     2.0820760000    -5.4065100000
   36      O       0.3595480000     4.1957210000    -4.5692250000
   37      C       0.4079010000     4.6884670000    -5.9162070000
   38      H       0.4969010000     5.7859160000    -5.8330640000
   39      H      -0.5125960000     4.4143480000    -6.4701680000
   40      H       1.2783770000     4.2681240000    -6.4592930000
   41      H       0.2947640000     3.3887670000     1.3064860000
   42      H      -0.9141940000    -9.1436230000    -0.0007380000
   43      H       0.7694240000    -9.1494410000    -0.6267350000
   44      H      -1.0122720000    -1.4431750000     0.3763530000
 ----------------------------------------------------------------

   11   -2755.3430186931      8.79e-07  Convergence criterion met
 Total energy in the final basis set =    -2755.3430186931
        RIMP2         total energy =     -2760.4325304607 a.u.

                    Orbital Energies (a.u.)
 --------------------------------------------------------------

 Alpha MOs
 -- Occupied --
-92.0149 -91.9958 -91.9822 -91.9593 -26.3426 -20.6149 -20.5892 -20.5874
-20.5615 -11.4095 -11.3814 -11.3109 -11.3102 -11.3099 -11.3020 -11.2982
-11.2921 -11.2889 -11.2860 -11.2855 -11.2845 -11.2840 -11.2826 -11.2745
-11.2740 -11.2608 -11.2596 -11.2509 -11.2399  -9.0137  -8.9960  -8.9844
 -8.9619  -6.6946  -6.6940  -6.6934  -6.6771  -6.6763  -6.6752  -6.6656
 -6.6647  -6.6634  -6.6431  -6.6422  -6.6412  -1.6597  -1.4674  -1.4124
 -1.4094  -1.3701  -1.2297  -1.2034  -1.1754  -1.1375  -1.1013  -1.0481
 -1.0447  -1.0236  -1.0048  -0.9993  -0.9630  -0.9593  -0.9496  -0.9406
 -0.8956  -0.8700  -0.8657  -0.8097  -0.8022  -0.7897  -0.7849  -0.7690
 -0.7564  -0.7384  -0.7247  -0.7140  -0.6992  -0.6892  -0.6847  -0.6809
 -0.6739  -0.6630  -0.6574  -0.6494  -0.6387  -0.6319  -0.6212  -0.6157
 -0.6122  -0.5985  -0.5934  -0.5766  -0.5719  -0.5651  -0.5601  -0.5518
 -0.5503  -0.5351  -0.5317  -0.5297  -0.5146  -0.5090  -0.5085  -0.5016
 -0.4855  -0.4814  -0.4774  -0.4739  -0.4719  -0.4675  -0.4609  -0.4475
 -0.4331  -0.3952  -0.3873  -0.3718  -0.3510  -0.2983  -0.2891  -0.2187

          Ground-State Mulliken Net Atomic Charges

     Atom                 Charge (a.u.)
  ----------------------------------------
      1 C                    -0.070551
      2 C                    -0.252616
      3 S                    -0.132736
      4 C                    -0.047767
      5 H                     0.194336
      6 C                    -0.051162
      7 C                     0.226598
      8 C                     0.229856
      9 C                    -0.073827
     10 C                    -0.052246
     11 O                    -0.333673
     12 O                    -0.343798
     13 C                    -0.083188
     14 H                     0.121328
     15 H                     0.092336
     16 H                     0.093051
     17 C                    -0.088241
     18 H                     0.124578
     19 H                     0.093032
     20 H                     0.090331
     21 C                    -0.280456
     22 S                    -0.091489
     23 C                     0.132455
     24 H                     0.200574
     25 C                    -0.094131
     26 S                     0.065825
     27 C                    -0.204909
     28 C                     0.045728
     29 C                    -0.130366
     30 S                    -0.009749
     31 C                    -0.161247
     32 C                     0.406427
     33 F                    -0.207667
     34 C                     0.443889
     35 O                    -0.460423
     36 O                    -0.300418
     37 C                    -0.058792
     38 H                     0.121499
     39 H                     0.095147
     40 H                     0.095175
     41 H                     0.218173
     42 H                     0.118356
     43 H                     0.116192
     44 H                     0.204568
  ----------------------------------------
  Sum of atomic charges =     0.000000

                    Cartesian Multipole Moments
 -----------------------------------------------------------------
    Charge (ESU x 10^10)
                 0.0000
    Dipole Moment (Debye)
         X      -0.3481      Y       1.6806      Z       3.5175
       Tot       3.9139
    Quadrupole Moments (Debye-Ang)
        XX    -201.8063     XY      -0.0665     YY    -170.2817
        XZ      -0.1904     YZ     -11.6484     ZZ    -187.8576

 Total job time:  328.90s(wall), 10462.97s(cpu)
        *  Thank you very much for using Q-Chem.  Have a nice day.  *
