 Q-Chem 5.4, Q-Chem, Inc., Pleasanton, CA (2021)
 Q-Chem 5.4.0 for Intel X86 EM64T Linux

User input:
--------------------------------------------------------------
$molecule
0 1
C	0.236226	-8.517702	-0.217225
C	-0.448921	-7.641575	0.611939
S	1.218777	-7.638634	-1.413715
C	-0.206907	-6.264785	0.323572
H	-1.118185	-7.966081	1.418739
C	0.711285	-6.072714	-0.768156
C	1.053725	-4.787049	-1.215016
C	-0.804258	-5.162801	0.999917
C	-0.464908	-3.874817	0.550033
C	0.456457	-3.683952	-0.541024
O	-1.630752	-5.499772	2.028811
O	1.883064	-4.459055	-2.249357
C	2.956754	-5.329063	-2.586579
H	3.619069	-4.755694	-3.262802
H	2.609423	-6.238095	-3.124711
H	3.531667	-5.637262	-1.686639
C	-2.599073	-4.572261	2.503251
H	-3.260097	-5.139743	3.185356
H	-3.207034	-4.153131	1.672937
H	-2.135214	-3.739531	3.075213
C	0.694410	-2.306654	-0.828107
S	-0.983256	-2.306501	1.188794
C	-0.000000	-1.435185	-0.000000
H	1.364851	-1.978138	-1.632185
C	0.000000	0.000000	0.000000
S	0.157577	0.890937	1.507541
C	0.429889	2.439720	0.718873
C	0.157797	0.890576	-1.067872
C	0.396915	2.260004	-0.686410
S	0.118307	0.650207	-2.805516
C	0.417036	2.376229	-3.054530
C	0.537616	3.074202	-1.862551
F	0.764992	4.391378	-1.819088
C	0.496696	2.817118	-4.456084
O	0.370874	2.057582	-5.406510
O	0.723861	4.148418	-4.569225
C	0.814976	4.635075	-5.916207
H	0.999286	5.720591	-5.833064
H	-0.125909	4.442226	-6.470168
H	1.645504	4.140465	-6.459293
H	0.588993	3.350182	1.306486
H	-0.456457	-9.143623	-0.792084
H	0.927480	-9.149441	0.352973
H	-0.832067	-1.443175	-0.688477
$end

$rem
JOBTYPE		SP
EXCHANGE	HF
CORRELATION	pRIMP2
BASIS		cc-pvtz
METHOD		rimp2
AUX_BASIS	rimp2-cc-pvtz
SOLVENT_METHOD	PCM
PURECART	11111
SYMMETRY	false
MEM_TOTAL	110000
SCF_CONVERGENCE = 6
THRESH=10
GUI = 2
$end

$solvent
dielectric 4.90
$end
--------------------------------------------------------------

             Standard Nuclear Orientation (Angstroms)
    I     Atom           X                Y                Z
 ----------------------------------------------------------------
    1      C       0.2362260000    -8.5177020000    -0.2172250000
    2      C      -0.4489210000    -7.6415750000     0.6119390000
    3      S       1.2187770000    -7.6386340000    -1.4137150000
    4      C      -0.2069070000    -6.2647850000     0.3235720000
    5      H      -1.1181850000    -7.9660810000     1.4187390000
    6      C       0.7112850000    -6.0727140000    -0.7681560000
    7      C       1.0537250000    -4.7870490000    -1.2150160000
    8      C      -0.8042580000    -5.1628010000     0.9999170000
    9      C      -0.4649080000    -3.8748170000     0.5500330000
   10      C       0.4564570000    -3.6839520000    -0.5410240000
   11      O      -1.6307520000    -5.4997720000     2.0288110000
   12      O       1.8830640000    -4.4590550000    -2.2493570000
   13      C       2.9567540000    -5.3290630000    -2.5865790000
   14      H       3.6190690000    -4.7556940000    -3.2628020000
   15      H       2.6094230000    -6.2380950000    -3.1247110000
   16      H       3.5316670000    -5.6372620000    -1.6866390000
   17      C      -2.5990730000    -4.5722610000     2.5032510000
   18      H      -3.2600970000    -5.1397430000     3.1853560000
   19      H      -3.2070340000    -4.1531310000     1.6729370000
   20      H      -2.1352140000    -3.7395310000     3.0752130000
   21      C       0.6944100000    -2.3066540000    -0.8281070000
   22      S      -0.9832560000    -2.3065010000     1.1887940000
   23      C       0.0000000000    -1.4351850000     0.0000000000
   24      H       1.3648510000    -1.9781380000    -1.6321850000
   25      C       0.0000000000     0.0000000000     0.0000000000
   26      S       0.1575770000     0.8909370000     1.5075410000
   27      C       0.4298890000     2.4397200000     0.7188730000
   28      C       0.1577970000     0.8905760000    -1.0678720000
   29      C       0.3969150000     2.2600040000    -0.6864100000
   30      S       0.1183070000     0.6502070000    -2.8055160000
   31      C       0.4170360000     2.3762290000    -3.0545300000
   32      C       0.5376160000     3.0742020000    -1.8625510000
   33      F       0.7649920000     4.3913780000    -1.8190880000
   34      C       0.4966960000     2.8171180000    -4.4560840000
   35      O       0.3708740000     2.0575820000    -5.4065100000
   36      O       0.7238610000     4.1484180000    -4.5692250000
   37      C       0.8149760000     4.6350750000    -5.9162070000
   38      H       0.9992860000     5.7205910000    -5.8330640000
   39      H      -0.1259090000     4.4422260000    -6.4701680000
   40      H       1.6455040000     4.1404650000    -6.4592930000
   41      H       0.5889930000     3.3501820000     1.3064860000
   42      H      -0.4564570000    -9.1436230000    -0.7920840000
   43      H       0.9274800000    -9.1494410000     0.3529730000
   44      H      -0.8320670000    -1.4431750000    -0.6884770000
 ----------------------------------------------------------------

   11   -2755.3437721667      7.74e-07  Convergence criterion met
 Total energy in the final basis set =    -2755.3437721667
        RIMP2         total energy =     -2760.4338275994 a.u.

                    Orbital Energies (a.u.)
 --------------------------------------------------------------

 Alpha MOs
 -- Occupied --
-92.0135 -91.9986 -91.9810 -91.9586 -26.3437 -20.6152 -20.5881 -20.5872
-20.5618 -11.4099 -11.3828 -11.3095 -11.3092 -11.3073 -11.3048 -11.2986
-11.2975 -11.2891 -11.2854 -11.2853 -11.2845 -11.2827 -11.2826 -11.2736
-11.2732 -11.2592 -11.2589 -11.2502 -11.2381  -9.0122  -8.9987  -8.9831
 -8.9612  -6.6930  -6.6924  -6.6919  -6.6798  -6.6790  -6.6779  -6.6643
 -6.6634  -6.6621  -6.6425  -6.6415  -6.6405  -1.6607  -1.4677  -1.4115
 -1.4091  -1.3704  -1.2299  -1.2032  -1.1744  -1.1372  -1.1013  -1.0472
 -1.0458  -1.0233  -1.0042  -0.9985  -0.9625  -0.9596  -0.9491  -0.9412
 -0.8947  -0.8712  -0.8647  -0.8099  -0.8001  -0.7900  -0.7847  -0.7683
 -0.7579  -0.7368  -0.7256  -0.7095  -0.7000  -0.6953  -0.6851  -0.6808
 -0.6742  -0.6646  -0.6565  -0.6490  -0.6374  -0.6309  -0.6205  -0.6152
 -0.6123  -0.5987  -0.5931  -0.5775  -0.5715  -0.5656  -0.5593  -0.5535
 -0.5466  -0.5342  -0.5314  -0.5272  -0.5132  -0.5088  -0.5081  -0.5025
 -0.4853  -0.4820  -0.4765  -0.4742  -0.4695  -0.4676  -0.4623  -0.4475
 -0.4297  -0.3966  -0.3861  -0.3708  -0.3506  -0.2997  -0.2894  -0.2194

          Ground-State Mulliken Net Atomic Charges

     Atom                 Charge (a.u.)
  ----------------------------------------
      1 C                    -0.070415
      2 C                    -0.256843
      3 S                    -0.134164
      4 C                    -0.047546
      5 H                     0.193764
      6 C                    -0.052574
      7 C                     0.221077
      8 C                     0.232292
      9 C                    -0.079045
     10 C                    -0.035919
     11 O                    -0.334517
     12 O                    -0.342703
     13 C                    -0.082958
     14 H                     0.120659
     15 H                     0.092201
     16 H                     0.092674
     17 C                    -0.087184
     18 H                     0.124073
     19 H                     0.093102
     20 H                     0.090055
     21 C                    -0.304502
     22 S                    -0.082753
     23 C                     0.107692
     24 H                     0.209432
     25 C                    -0.054732
     26 S                     0.090285
     27 C                    -0.202411
     28 C                    -0.015000
     29 C                    -0.104469
     30 S                     0.001469
     31 C                    -0.155623
     32 C                     0.397720
     33 F                    -0.206698
     34 C                     0.444778
     35 O                    -0.460616
     36 O                    -0.300560
     37 C                    -0.058597
     38 H                     0.121536
     39 H                     0.095242
     40 H                     0.095162
     41 H                     0.216501
     42 H                     0.117823
     43 H                     0.115477
     44 H                     0.196819
  ----------------------------------------
  Sum of atomic charges =     0.000000

                    Cartesian Multipole Moments
 -----------------------------------------------------------------
    Charge (ESU x 10^10)
                -0.0000
    Dipole Moment (Debye)
         X      -0.1476      Y       2.2180      Z       2.7271
       Tot       3.5183
    Quadrupole Moments (Debye-Ang)
        XX    -187.7040     XY       5.3221     YY    -173.1957
        XZ      -9.6500     YZ     -10.7555     ZZ    -201.5054

 Total job time:  357.78s(wall), 10941.80s(cpu)
        *  Thank you very much for using Q-Chem.  Have a nice day.  *
