 Q-Chem 5.4, Q-Chem, Inc., Pleasanton, CA (2021)
 Q-Chem 5.4.0 for Intel X86 EM64T Linux

User input:
--------------------------------------------------------------
$molecule
0 1
C	1.438381	-8.395476	0.318247
C	1.278244	-7.534070	-0.757333
S	1.301894	-7.526914	1.866383
C	1.039133	-6.178202	-0.380867
H	1.328769	-7.854673	-1.805573
C	1.004177	-5.989332	1.045647
C	0.805458	-4.718873	1.608077
C	0.870278	-5.088992	-1.282948
C	0.675402	-3.815501	-0.720187
C	0.637837	-3.628315	0.707853
O	0.900992	-5.425746	-2.602386
O	0.777604	-4.390731	2.933517
C	0.332149	-5.352705	3.881999
H	0.160995	-4.800670	4.825744
H	1.092680	-6.141658	4.070972
H	-0.617733	-5.833149	3.562152
C	1.170109	-4.436474	-3.588253
H	1.335544	-4.983539	-4.535674
H	2.081585	-3.850160	-3.342986
H	0.313504	-3.741940	-3.728239
C	0.400889	-2.271550	1.080725
S	0.389762	-2.273357	-1.542694
C	0.249217	-1.413382	0.000000
H	0.347057	-1.947458	2.127635
C	0.000000	0.000000	0.000000
S	0.581934	0.692785	1.507541
C	1.592155	1.897915	0.718873
C	0.581944	0.692363	-1.067872
C	1.473741	1.758764	-0.686410
S	0.427560	0.503942	-2.805516
C	1.549278	1.849357	-3.054530
C	2.002690	2.393529	-1.862551
F	2.858191	3.420549	-1.819088
C	1.838710	2.191348	-4.456084
O	1.349977	1.596481	-5.406510
O	2.701091	3.230705	-4.569225
C	3.023327	3.606605	-5.916207
H	3.725703	4.454534	-5.833064
H	2.112072	3.910035	-6.470168
H	3.495281	2.762996	-6.459293
H	2.185174	2.606846	1.306486
H	2.433535	-8.855580	0.313367
H	0.665647	-9.173214	0.325780
H	1.314143	-1.233719	-0.007439
$end

$rem
JOBTYPE		SP
EXCHANGE	HF
CORRELATION	pRIMP2
BASIS		cc-pvtz
METHOD		rimp2
AUX_BASIS	rimp2-cc-pvtz
SOLVENT_METHOD	PCM
PURECART	11111
SYMMETRY	false
MEM_TOTAL	110000
SCF_CONVERGENCE = 6
THRESH=10
GUI = 2
$end

$solvent
dielectric 4.90
$end
--------------------------------------------------------------

             Standard Nuclear Orientation (Angstroms)
    I     Atom           X                Y                Z
 ----------------------------------------------------------------
    1      C       1.4383810000    -8.3954760000     0.3182470000
    2      C       1.2782440000    -7.5340700000    -0.7573330000
    3      S       1.3018940000    -7.5269140000     1.8663830000
    4      C       1.0391330000    -6.1782020000    -0.3808670000
    5      H       1.3287690000    -7.8546730000    -1.8055730000
    6      C       1.0041770000    -5.9893320000     1.0456470000
    7      C       0.8054580000    -4.7188730000     1.6080770000
    8      C       0.8702780000    -5.0889920000    -1.2829480000
    9      C       0.6754020000    -3.8155010000    -0.7201870000
   10      C       0.6378370000    -3.6283150000     0.7078530000
   11      O       0.9009920000    -5.4257460000    -2.6023860000
   12      O       0.7776040000    -4.3907310000     2.9335170000
   13      C       0.3321490000    -5.3527050000     3.8819990000
   14      H       0.1609950000    -4.8006700000     4.8257440000
   15      H       1.0926800000    -6.1416580000     4.0709720000
   16      H      -0.6177330000    -5.8331490000     3.5621520000
   17      C       1.1701090000    -4.4364740000    -3.5882530000
   18      H       1.3355440000    -4.9835390000    -4.5356740000
   19      H       2.0815850000    -3.8501600000    -3.3429860000
   20      H       0.3135040000    -3.7419400000    -3.7282390000
   21      C       0.4008890000    -2.2715500000     1.0807250000
   22      S       0.3897620000    -2.2733570000    -1.5426940000
   23      C       0.2492170000    -1.4133820000     0.0000000000
   24      H       0.3470570000    -1.9474580000     2.1276350000
   25      C       0.0000000000     0.0000000000     0.0000000000
   26      S       0.5819340000     0.6927850000     1.5075410000
   27      C       1.5921550000     1.8979150000     0.7188730000
   28      C       0.5819440000     0.6923630000    -1.0678720000
   29      C       1.4737410000     1.7587640000    -0.6864100000
   30      S       0.4275600000     0.5039420000    -2.8055160000
   31      C       1.5492780000     1.8493570000    -3.0545300000
   32      C       2.0026900000     2.3935290000    -1.8625510000
   33      F       2.8581910000     3.4205490000    -1.8190880000
   34      C       1.8387100000     2.1913480000    -4.4560840000
   35      O       1.3499770000     1.5964810000    -5.4065100000
   36      O       2.7010910000     3.2307050000    -4.5692250000
   37      C       3.0233270000     3.6066050000    -5.9162070000
   38      H       3.7257030000     4.4545340000    -5.8330640000
   39      H       2.1120720000     3.9100350000    -6.4701680000
   40      H       3.4952810000     2.7629960000    -6.4592930000
   41      H       2.1851740000     2.6068460000     1.3064860000
   42      H       2.4335350000    -8.8555800000     0.3133670000
   43      H       0.6656470000    -9.1732140000     0.3257800000
   44      H       1.3141430000    -1.2337190000    -0.0074390000
 ----------------------------------------------------------------

   11   -2755.2901959841      7.29e-07  Convergence criterion met
 Total energy in the final basis set =    -2755.2901959841
        RIMP2         total energy =     -2760.3968240366 a.u.

                    Orbital Energies (a.u.)
 --------------------------------------------------------------

 Alpha MOs
 -- Occupied --
-92.0114 -92.0007 -91.9738 -91.9581 -26.3439 -20.6156 -20.5872 -20.5863
-20.5622 -11.4104 -11.3829 -11.3181 -11.3086 -11.3069 -11.3027 -11.2987
-11.2933 -11.2894 -11.2879 -11.2833 -11.2829 -11.2813 -11.2803 -11.2724
-11.2694 -11.2578 -11.2568 -11.2496 -11.2368  -9.0111  -9.0010  -8.9767
 -8.9607  -6.6919  -6.6911  -6.6907  -6.6819  -6.6812  -6.6801  -6.6577
 -6.6569  -6.6555  -6.6419  -6.6410  -6.6400  -1.6611  -1.4681  -1.4099
 -1.4087  -1.3708  -1.2401  -1.2001  -1.1739  -1.1406  -1.0991  -1.0494
 -1.0444  -1.0276  -1.0021  -0.9952  -0.9662  -0.9555  -0.9495  -0.9424
 -0.8930  -0.8713  -0.8593  -0.8188  -0.7934  -0.7882  -0.7819  -0.7682
 -0.7572  -0.7370  -0.7261  -0.7125  -0.6968  -0.6951  -0.6855  -0.6819
 -0.6746  -0.6668  -0.6552  -0.6482  -0.6369  -0.6309  -0.6199  -0.6151
 -0.6105  -0.6018  -0.5933  -0.5790  -0.5700  -0.5668  -0.5591  -0.5555
 -0.5453  -0.5334  -0.5303  -0.5250  -0.5167  -0.5114  -0.5074  -0.4996
 -0.4835  -0.4817  -0.4780  -0.4733  -0.4697  -0.4625  -0.4556  -0.4461
 -0.4296  -0.3957  -0.3782  -0.3705  -0.3521  -0.3038  -0.2849  -0.2146

          Ground-State Mulliken Net Atomic Charges

     Atom                 Charge (a.u.)
  ----------------------------------------
      1 C                    -0.070260
      2 C                    -0.259304
      3 S                    -0.136530
      4 C                    -0.046415
      5 H                     0.193558
      6 C                    -0.050275
      7 C                     0.219605
      8 C                     0.225133
      9 C                    -0.066049
     10 C                    -0.038150
     11 O                    -0.335053
     12 O                    -0.344157
     13 C                    -0.082840
     14 H                     0.119688
     15 H                     0.092026
     16 H                     0.093034
     17 C                    -0.087899
     18 H                     0.123785
     19 H                     0.092031
     20 H                     0.091209
     21 C                    -0.293672
     22 S                    -0.103567
     23 C                     0.095308
     24 H                     0.198175
     25 C                    -0.074258
     26 S                     0.081444
     27 C                    -0.175469
     28 C                    -0.000090
     29 C                    -0.104903
     30 S                     0.032361
     31 C                    -0.157292
     32 C                     0.398830
     33 F                    -0.206877
     34 C                     0.447518
     35 O                    -0.460590
     36 O                    -0.300705
     37 C                    -0.058459
     38 H                     0.121568
     39 H                     0.095358
     40 H                     0.095110
     41 H                     0.219038
     42 H                     0.117391
     43 H                     0.115034
     44 H                     0.185609
  ----------------------------------------
  Sum of atomic charges =     0.000000

                    Cartesian Multipole Moments
 -----------------------------------------------------------------
    Charge (ESU x 10^10)
                 0.0000
    Dipole Moment (Debye)
         X       2.6657      Y       2.5102      Z       2.4191
       Tot       4.3885
    Quadrupole Moments (Debye-Ang)
        XX    -192.9995     XY       6.7112     YY    -181.5936
        XZ     -11.3484     YZ      -2.5577     ZZ    -188.4662

 Total job time:  338.62s(wall), 10847.50s(cpu)
        *  Thank you very much for using Q-Chem.  Have a nice day.  *
