 Q-Chem 5.4, Q-Chem, Inc., Pleasanton, CA (2021)
 Q-Chem 5.4.0 for Intel X86 EM64T Linux

User input:
--------------------------------------------------------------
$molecule
0 1
C	0.014560	-8.517702	0.320589
C	-0.180211	-7.641575	-0.737240
S	0.299553	-7.638634	1.842356
C	-0.114873	-6.264785	-0.366488
H	-0.368061	-7.966081	-1.768528
C	0.131236	-6.072714	1.038637
C	0.253435	-4.787049	1.588197
C	-0.249014	-5.162801	-1.258831
C	-0.122513	-3.874817	-0.709695
C	0.121043	-3.683952	0.697430
O	-0.505933	-5.499772	-2.553323
O	0.512697	-4.459055	2.888369
C	0.080869	-5.329063	3.927625
H	0.173159	-4.755694	4.869656
H	0.716363	-6.238095	4.007459
H	-0.978072	-5.637262	3.789565
C	-0.246949	-4.572261	-3.600064
H	-0.344574	-5.139743	-4.544887
H	0.779898	-4.153131	-3.532074
H	-0.983261	-3.739531	-3.612378
C	0.188009	-2.306654	1.064246
S	-0.278644	-2.306501	-1.517360
C	0.000000	-1.435185	0.000000
H	0.373017	-1.978138	2.094685
C	0.000000	0.000000	0.000000
S	0.234628	0.873813	1.507541
C	0.640889	2.392969	0.718873
C	0.234815	0.873434	-1.067872
C	0.592377	2.216811	-0.686410
S	0.174526	0.637422	-2.805516
C	0.622551	2.330840	-3.054530
C	0.803505	3.015647	-1.862551
F	1.144815	4.307994	-1.819088
C	0.740334	2.763108	-4.456084
O	0.548793	2.017428	-5.406510
O	1.082665	4.069544	-4.569225
C	1.215848	4.546407	-5.916207
H	1.494066	5.611729	-5.833064
H	0.261736	4.436296	-6.470168
H	2.000108	3.981294	-6.459293
H	0.878739	3.286099	1.306486
H	0.900177	-9.143623	0.159475
H	-0.866566	-9.149441	0.483604
H	1.062246	-1.443175	-0.194856
$end

$rem
JOBTYPE		SP
EXCHANGE	HF
CORRELATION	pRIMP2
BASIS		cc-pvtz
METHOD		rimp2
AUX_BASIS	rimp2-cc-pvtz
SOLVENT_METHOD	PCM
PURECART	11111
SYMMETRY	false
MEM_TOTAL	110000
SCF_CONVERGENCE = 6
THRESH=10
GUI = 2
$end

$solvent
dielectric 4.90
$end
--------------------------------------------------------------

             Standard Nuclear Orientation (Angstroms)
    I     Atom           X                Y                Z
 ----------------------------------------------------------------
    1      C       0.0145600000    -8.5177020000     0.3205890000
    2      C      -0.1802110000    -7.6415750000    -0.7372400000
    3      S       0.2995530000    -7.6386340000     1.8423560000
    4      C      -0.1148730000    -6.2647850000    -0.3664880000
    5      H      -0.3680610000    -7.9660810000    -1.7685280000
    6      C       0.1312360000    -6.0727140000     1.0386370000
    7      C       0.2534350000    -4.7870490000     1.5881970000
    8      C      -0.2490140000    -5.1628010000    -1.2588310000
    9      C      -0.1225130000    -3.8748170000    -0.7096950000
   10      C       0.1210430000    -3.6839520000     0.6974300000
   11      O      -0.5059330000    -5.4997720000    -2.5533230000
   12      O       0.5126970000    -4.4590550000     2.8883690000
   13      C       0.0808690000    -5.3290630000     3.9276250000
   14      H       0.1731590000    -4.7556940000     4.8696560000
   15      H       0.7163630000    -6.2380950000     4.0074590000
   16      H      -0.9780720000    -5.6372620000     3.7895650000
   17      C      -0.2469490000    -4.5722610000    -3.6000640000
   18      H      -0.3445740000    -5.1397430000    -4.5448870000
   19      H       0.7798980000    -4.1531310000    -3.5320740000
   20      H      -0.9832610000    -3.7395310000    -3.6123780000
   21      C       0.1880090000    -2.3066540000     1.0642460000
   22      S      -0.2786440000    -2.3065010000    -1.5173600000
   23      C       0.0000000000    -1.4351850000     0.0000000000
   24      H       0.3730170000    -1.9781380000     2.0946850000
   25      C       0.0000000000     0.0000000000     0.0000000000
   26      S       0.2346280000     0.8738130000     1.5075410000
   27      C       0.6408890000     2.3929690000     0.7188730000
   28      C       0.2348150000     0.8734340000    -1.0678720000
   29      C       0.5923770000     2.2168110000    -0.6864100000
   30      S       0.1745260000     0.6374220000    -2.8055160000
   31      C       0.6225510000     2.3308400000    -3.0545300000
   32      C       0.8035050000     3.0156470000    -1.8625510000
   33      F       1.1448150000     4.3079940000    -1.8190880000
   34      C       0.7403340000     2.7631080000    -4.4560840000
   35      O       0.5487930000     2.0174280000    -5.4065100000
   36      O       1.0826650000     4.0695440000    -4.5692250000
   37      C       1.2158480000     4.5464070000    -5.9162070000
   38      H       1.4940660000     5.6117290000    -5.8330640000
   39      H       0.2617360000     4.4362960000    -6.4701680000
   40      H       2.0001080000     3.9812940000    -6.4592930000
   41      H       0.8787390000     3.2860990000     1.3064860000
   42      H       0.9001770000    -9.1436230000     0.1594750000
   43      H      -0.8665660000    -9.1494410000     0.4836040000
   44      H       1.0622460000    -1.4431750000    -0.1948560000
 ----------------------------------------------------------------

   11   -2755.3401945861      8.28e-07  Convergence criterion met
 Total energy in the final basis set =    -2755.3401945861
        RIMP2         total energy =     -2760.4324410273 a.u.

                    Orbital Energies (a.u.)
 --------------------------------------------------------------

 Alpha MOs
 -- Occupied --
-92.0141 -91.9947 -91.9804 -91.9601 -26.3420 -20.6147 -20.5886 -20.5883
-20.5612 -11.4091 -11.3803 -11.3117 -11.3109 -11.3102 -11.2993 -11.2973
-11.2909 -11.2887 -11.2853 -11.2851 -11.2848 -11.2844 -11.2837 -11.2756
-11.2730 -11.2619 -11.2599 -11.2516 -11.2410  -9.0128  -8.9950  -8.9828
 -8.9627  -6.6936  -6.6930  -6.6925  -6.6760  -6.6753  -6.6741  -6.6640
 -6.6631  -6.6618  -6.6439  -6.6430  -6.6419  -1.6591  -1.4671  -1.4120
 -1.4102  -1.3698  -1.2308  -1.2026  -1.1757  -1.1372  -1.1014  -1.0489
 -1.0442  -1.0239  -1.0048  -0.9983  -0.9639  -0.9569  -0.9498  -0.9421
 -0.8951  -0.8698  -0.8648  -0.8155  -0.7920  -0.7906  -0.7849  -0.7702
 -0.7567  -0.7374  -0.7241  -0.7100  -0.6965  -0.6955  -0.6845  -0.6819
 -0.6737  -0.6648  -0.6567  -0.6496  -0.6382  -0.6318  -0.6218  -0.6162
 -0.6113  -0.5998  -0.5936  -0.5764  -0.5714  -0.5665  -0.5604  -0.5562
 -0.5501  -0.5324  -0.5311  -0.5272  -0.5163  -0.5119  -0.5085  -0.5010
 -0.4849  -0.4798  -0.4767  -0.4736  -0.4708  -0.4657  -0.4601  -0.4480
 -0.4328  -0.3983  -0.3831  -0.3727  -0.3504  -0.3005  -0.2864  -0.2183

          Ground-State Mulliken Net Atomic Charges

     Atom                 Charge (a.u.)
  ----------------------------------------
      1 C                    -0.070849
      2 C                    -0.247656
      3 S                    -0.131843
      4 C                    -0.049018
      5 H                     0.195189
      6 C                    -0.048854
      7 C                     0.218785
      8 C                     0.232388
      9 C                    -0.068957
     10 C                    -0.033559
     11 O                    -0.333996
     12 O                    -0.344182
     13 C                    -0.082728
     14 H                     0.120176
     15 H                     0.092252
     16 H                     0.093175
     17 C                    -0.089044
     18 H                     0.124750
     19 H                     0.093822
     20 H                     0.091522
     21 C                    -0.314624
     22 S                    -0.108147
     23 C                     0.121762
     24 H                     0.197734
     25 C                     0.016462
     26 S                     0.074298
     27 C                    -0.220010
     28 C                    -0.040537
     29 C                    -0.112962
     30 S                    -0.009459
     31 C                    -0.164262
     32 C                     0.406246
     33 F                    -0.207930
     34 C                     0.443976
     35 O                    -0.460598
     36 O                    -0.300649
     37 C                    -0.058689
     38 H                     0.121409
     39 H                     0.095149
     40 H                     0.094985
     41 H                     0.216878
     42 H                     0.119056
     43 H                     0.116719
     44 H                     0.211819
  ----------------------------------------
  Sum of atomic charges =     0.000000

                    Cartesian Multipole Moments
 -----------------------------------------------------------------
    Charge (ESU x 10^10)
                 0.0000
    Dipole Moment (Debye)
         X       1.1872      Y       1.1491      Z       2.6300
       Tot       3.1059
    Quadrupole Moments (Debye-Ang)
        XX    -200.4910     XY       4.4236     YY    -169.6804
        XZ      -4.7709     YZ      -3.0523     ZZ    -188.1447

 Total job time:  361.49s(wall), 11260.79s(cpu)
        *  Thank you very much for using Q-Chem.  Have a nice day.  *
