 Q-Chem 5.4, Q-Chem, Inc., Pleasanton, CA (2021)
 Q-Chem 5.4.0 for Intel X86 EM64T Linux

User input:
--------------------------------------------------------------
$molecule
0 1
C	-0.306235	-8.517702	-0.095966
C	0.754415	-7.641575	0.082807
S	-1.833702	-7.638634	-0.348635
C	0.383675	-6.264785	0.017401
H	1.787757	-7.966081	0.259008
C	-1.020885	-6.072714	-0.231913
C	-1.579097	-4.787049	-0.305044
C	1.268082	-5.162801	0.196549
C	0.708796	-3.874817	0.127606
C	-0.696769	-3.683952	-0.124792
O	2.572378	-5.499772	0.397867
O	-2.889532	-4.459055	-0.506103
C	-3.718420	-5.329063	-1.267335
H	-4.635204	-4.755694	-1.502804
H	-4.010790	-6.238095	-0.697471
H	-3.226506	-5.637262	-2.215194
C	3.467415	-4.572261	0.999238
H	4.388648	-5.139743	1.230649
H	3.052323	-4.153131	1.940905
H	3.730819	-3.739531	0.311543
C	-1.064366	-2.306654	-0.187323
S	1.521154	-2.306501	0.257128
C	-0.000000	-1.435185	-0.000000
H	-2.095939	-1.978138	-0.365903
C	0.000000	0.000000	0.000000
S	0.157577	0.890937	1.507541
C	0.429889	2.439720	0.718873
C	0.157797	0.890576	-1.067872
C	0.396915	2.260004	-0.686410
S	0.118307	0.650207	-2.805516
C	0.417036	2.376229	-3.054530
C	0.537616	3.074202	-1.862551
F	0.764992	4.391378	-1.819088
C	0.496696	2.817118	-4.456084
O	0.370874	2.057582	-5.406510
O	0.723861	4.148418	-4.569225
C	0.814976	4.635075	-5.916207
H	0.999286	5.720591	-5.833064
H	-0.125909	4.442226	-6.470168
H	1.645504	4.140465	-6.459293
H	0.588993	3.350182	1.306486
H	-0.457736	-9.143623	0.791346
H	-0.158056	-9.149441	-0.979708
H	-0.180205	-1.443175	1.064830
$end

$rem
JOBTYPE		SP
EXCHANGE	HF
CORRELATION	pRIMP2
BASIS		cc-pvtz
METHOD		rimp2
AUX_BASIS	rimp2-cc-pvtz
SOLVENT_METHOD	PCM
PURECART	11111
SYMMETRY	false
MEM_TOTAL	110000
SCF_CONVERGENCE = 6
THRESH=10
GUI = 2
$end

$solvent
dielectric 4.90
$end
--------------------------------------------------------------

             Standard Nuclear Orientation (Angstroms)
    I     Atom           X                Y                Z
 ----------------------------------------------------------------
    1      C      -0.3062350000    -8.5177020000    -0.0959660000
    2      C       0.7544150000    -7.6415750000     0.0828070000
    3      S      -1.8337020000    -7.6386340000    -0.3486350000
    4      C       0.3836750000    -6.2647850000     0.0174010000
    5      H       1.7877570000    -7.9660810000     0.2590080000
    6      C      -1.0208850000    -6.0727140000    -0.2319130000
    7      C      -1.5790970000    -4.7870490000    -0.3050440000
    8      C       1.2680820000    -5.1628010000     0.1965490000
    9      C       0.7087960000    -3.8748170000     0.1276060000
   10      C      -0.6967690000    -3.6839520000    -0.1247920000
   11      O       2.5723780000    -5.4997720000     0.3978670000
   12      O      -2.8895320000    -4.4590550000    -0.5061030000
   13      C      -3.7184200000    -5.3290630000    -1.2673350000
   14      H      -4.6352040000    -4.7556940000    -1.5028040000
   15      H      -4.0107900000    -6.2380950000    -0.6974710000
   16      H      -3.2265060000    -5.6372620000    -2.2151940000
   17      C       3.4674150000    -4.5722610000     0.9992380000
   18      H       4.3886480000    -5.1397430000     1.2306490000
   19      H       3.0523230000    -4.1531310000     1.9409050000
   20      H       3.7308190000    -3.7395310000     0.3115430000
   21      C      -1.0643660000    -2.3066540000    -0.1873230000
   22      S       1.5211540000    -2.3065010000     0.2571280000
   23      C       0.0000000000    -1.4351850000     0.0000000000
   24      H      -2.0959390000    -1.9781380000    -0.3659030000
   25      C       0.0000000000     0.0000000000     0.0000000000
   26      S       0.1575770000     0.8909370000     1.5075410000
   27      C       0.4298890000     2.4397200000     0.7188730000
   28      C       0.1577970000     0.8905760000    -1.0678720000
   29      C       0.3969150000     2.2600040000    -0.6864100000
   30      S       0.1183070000     0.6502070000    -2.8055160000
   31      C       0.4170360000     2.3762290000    -3.0545300000
   32      C       0.5376160000     3.0742020000    -1.8625510000
   33      F       0.7649920000     4.3913780000    -1.8190880000
   34      C       0.4966960000     2.8171180000    -4.4560840000
   35      O       0.3708740000     2.0575820000    -5.4065100000
   36      O       0.7238610000     4.1484180000    -4.5692250000
   37      C       0.8149760000     4.6350750000    -5.9162070000
   38      H       0.9992860000     5.7205910000    -5.8330640000
   39      H      -0.1259090000     4.4422260000    -6.4701680000
   40      H       1.6455040000     4.1404650000    -6.4592930000
   41      H       0.5889930000     3.3501820000     1.3064860000
   42      H      -0.4577360000    -9.1436230000     0.7913460000
   43      H      -0.1580560000    -9.1494410000    -0.9797080000
   44      H      -0.1802050000    -1.4431750000     1.0648300000
 ----------------------------------------------------------------

   11   -2755.3438033694      7.47e-07  Convergence criterion met
 Total energy in the final basis set =    -2755.3438033694
        RIMP2         total energy =     -2760.4308706212 a.u.

                    Orbital Energies (a.u.)
 --------------------------------------------------------------

 Alpha MOs
 -- Occupied --
-92.0178 -91.9985 -91.9764 -91.9576 -26.3436 -20.6150 -20.5869 -20.5863
-20.5615 -11.4096 -11.3827 -11.3123 -11.3086 -11.3062 -11.2997 -11.2982
-11.2980 -11.2889 -11.2852 -11.2842 -11.2825 -11.2825 -11.2788 -11.2721
-11.2718 -11.2576 -11.2564 -11.2491 -11.2356  -9.0164  -8.9986  -8.9787
 -8.9602  -6.6971  -6.6965  -6.6960  -6.6796  -6.6788  -6.6777  -6.6598
 -6.6589  -6.6576  -6.6414  -6.6405  -6.6395  -1.6607  -1.4674  -1.4098
 -1.4085  -1.3701  -1.2285  -1.2023  -1.1730  -1.1377  -1.0992  -1.0455
 -1.0441  -1.0247  -1.0033  -0.9964  -0.9628  -0.9587  -0.9479  -0.9404
 -0.8928  -0.8687  -0.8663  -0.8138  -0.7985  -0.7886  -0.7843  -0.7673
 -0.7567  -0.7376  -0.7256  -0.7170  -0.6971  -0.6861  -0.6846  -0.6793
 -0.6740  -0.6603  -0.6557  -0.6482  -0.6333  -0.6301  -0.6194  -0.6147
 -0.6112  -0.5992  -0.5914  -0.5763  -0.5715  -0.5640  -0.5583  -0.5538
 -0.5479  -0.5326  -0.5311  -0.5252  -0.5127  -0.5075  -0.5068  -0.5011
 -0.4854  -0.4817  -0.4763  -0.4740  -0.4713  -0.4682  -0.4606  -0.4459
 -0.4227  -0.3998  -0.3847  -0.3697  -0.3507  -0.3017  -0.2888  -0.2204

          Ground-State Mulliken Net Atomic Charges

     Atom                 Charge (a.u.)
  ----------------------------------------
      1 C                    -0.070072
      2 C                    -0.263024
      3 S                    -0.136711
      4 C                    -0.042616
      5 H                     0.192974
      6 C                    -0.053226
      7 C                     0.227821
      8 C                     0.222285
      9 C                    -0.076166
     10 C                    -0.057025
     11 O                    -0.335114
     12 O                    -0.343478
     13 C                    -0.082547
     14 H                     0.119981
     15 H                     0.091785
     16 H                     0.093141
     17 C                    -0.086385
     18 H                     0.122886
     19 H                     0.091473
     20 H                     0.090624
     21 C                    -0.247002
     22 S                    -0.072999
     23 C                     0.066097
     24 H                     0.205439
     25 C                    -0.103834
     26 S                     0.094002
     27 C                    -0.187607
     28 C                     0.034745
     29 C                    -0.110718
     30 S                     0.009337
     31 C                    -0.157670
     32 C                     0.400902
     33 F                    -0.207026
     34 C                     0.444099
     35 O                    -0.460620
     36 O                    -0.300652
     37 C                    -0.058579
     38 H                     0.121343
     39 H                     0.095141
     40 H                     0.095232
     41 H                     0.219142
     42 H                     0.116742
     43 H                     0.114658
     44 H                     0.183220
  ----------------------------------------
  Sum of atomic charges =     0.000000

                    Cartesian Multipole Moments
 -----------------------------------------------------------------
    Charge (ESU x 10^10)
                -0.0000
    Dipole Moment (Debye)
         X       0.4944      Y       3.2697      Z       3.5009
       Tot       4.8157
    Quadrupole Moments (Debye-Ang)
        XX    -187.3917     XY      -0.7992     YY    -177.0320
        XZ       6.5808     YZ      -7.8589     ZZ    -201.7428

 Total job time:  370.89s(wall), 11590.98s(cpu)
        *  Thank you very much for using Q-Chem.  Have a nice day.  *
