 Q-Chem 5.4, Q-Chem, Inc., Pleasanton, CA (2021)
 Q-Chem 5.4.0 for Intel X86 EM64T Linux

User input:
--------------------------------------------------------------
$molecule
0 1
C	-0.070009	-8.517702	-0.313191
C	0.305494	-7.641575	0.694746
S	-0.614924	-7.638634	-1.762350
C	0.176768	-6.264785	0.340973
H	0.669571	-7.966081	1.677747
C	-0.309600	-6.072714	-1.000069
C	-0.525372	-4.787049	-1.520060
C	0.463825	-5.162801	1.196466
C	0.243888	-3.874817	0.677639
C	-0.240312	-3.683952	-0.665815
O	0.941626	-5.499772	2.426678
O	-1.006468	-4.459055	-2.755460
C	-0.761666	-5.329063	-3.853913
H	-1.016135	-4.755694	-4.765607
H	-1.401368	-6.238095	-3.822182
H	0.305161	-5.637262	-3.901833
C	0.868342	-4.572261	3.502489
H	1.128551	-5.139743	4.416005
H	-0.154712	-4.153131	3.613841
H	1.595605	-3.739531	3.386756
C	-0.369957	-2.306654	-1.015430
S	0.537898	-2.306501	1.445922
C	0.000000	-1.435185	0.000000
H	-0.731088	-1.978138	-1.998088
C	0.000000	0.000000	0.000000
S	0.000474	0.904764	1.507541
C	-0.000295	2.477305	0.718873
C	0.000752	0.904447	-1.067872
C	-0.001560	2.294593	-0.686410
S	0.003602	0.660872	-2.805516
C	-0.001928	2.412546	-3.054530
C	-0.004381	3.120854	-1.862551
F	-0.009185	4.457503	-1.819088
C	-0.000038	2.860570	-4.456084
O	0.007944	2.090724	-5.406510
O	-0.007501	4.211092	-4.569225
C	-0.002278	4.706177	-5.916207
H	-0.009265	5.807207	-5.833064
H	-0.895381	4.352875	-6.470168
H	0.901521	4.363301	-6.459293
H	-0.001708	3.401562	1.306486
H	-0.914194	-9.143623	-0.000738
H	0.769424	-9.149441	-0.626735
H	-1.012272	-1.443175	0.376353
$end

$rem
JOBTYPE		SP
EXCHANGE	HF
CORRELATION	pRIMP2
BASIS		cc-pvtz
METHOD		rimp2
AUX_BASIS	rimp2-cc-pvtz
SOLVENT_METHOD	PCM
PURECART	11111
SYMMETRY	false
MEM_TOTAL	110000
SCF_CONVERGENCE = 6
THRESH=10
GUI = 2
$end

$solvent
dielectric 4.90
$end
--------------------------------------------------------------

             Standard Nuclear Orientation (Angstroms)
    I     Atom           X                Y                Z
 ----------------------------------------------------------------
    1      C      -0.0700090000    -8.5177020000    -0.3131910000
    2      C       0.3054940000    -7.6415750000     0.6947460000
    3      S      -0.6149240000    -7.6386340000    -1.7623500000
    4      C       0.1767680000    -6.2647850000     0.3409730000
    5      H       0.6695710000    -7.9660810000     1.6777470000
    6      C      -0.3096000000    -6.0727140000    -1.0000690000
    7      C      -0.5253720000    -4.7870490000    -1.5200600000
    8      C       0.4638250000    -5.1628010000     1.1964660000
    9      C       0.2438880000    -3.8748170000     0.6776390000
   10      C      -0.2403120000    -3.6839520000    -0.6658150000
   11      O       0.9416260000    -5.4997720000     2.4266780000
   12      O      -1.0064680000    -4.4590550000    -2.7554600000
   13      C      -0.7616660000    -5.3290630000    -3.8539130000
   14      H      -1.0161350000    -4.7556940000    -4.7656070000
   15      H      -1.4013680000    -6.2380950000    -3.8221820000
   16      H       0.3051610000    -5.6372620000    -3.9018330000
   17      C       0.8683420000    -4.5722610000     3.5024890000
   18      H       1.1285510000    -5.1397430000     4.4160050000
   19      H      -0.1547120000    -4.1531310000     3.6138410000
   20      H       1.5956050000    -3.7395310000     3.3867560000
   21      C      -0.3699570000    -2.3066540000    -1.0154300000
   22      S       0.5378980000    -2.3065010000     1.4459220000
   23      C       0.0000000000    -1.4351850000     0.0000000000
   24      H      -0.7310880000    -1.9781380000    -1.9980880000
   25      C       0.0000000000     0.0000000000     0.0000000000
   26      S       0.0004740000     0.9047640000     1.5075410000
   27      C      -0.0002950000     2.4773050000     0.7188730000
   28      C       0.0007520000     0.9044470000    -1.0678720000
   29      C      -0.0015600000     2.2945930000    -0.6864100000
   30      S       0.0036020000     0.6608720000    -2.8055160000
   31      C      -0.0019280000     2.4125460000    -3.0545300000
   32      C      -0.0043810000     3.1208540000    -1.8625510000
   33      F      -0.0091850000     4.4575030000    -1.8190880000
   34      C      -0.0000380000     2.8605700000    -4.4560840000
   35      O       0.0079440000     2.0907240000    -5.4065100000
   36      O      -0.0075010000     4.2110920000    -4.5692250000
   37      C      -0.0022780000     4.7061770000    -5.9162070000
   38      H      -0.0092650000     5.8072070000    -5.8330640000
   39      H      -0.8953810000     4.3528750000    -6.4701680000
   40      H       0.9015210000     4.3633010000    -6.4592930000
   41      H      -0.0017080000     3.4015620000     1.3064860000
   42      H      -0.9141940000    -9.1436230000    -0.0007380000
   43      H       0.7694240000    -9.1494410000    -0.6267350000
   44      H      -1.0122720000    -1.4431750000     0.3763530000
 ----------------------------------------------------------------

   11   -2755.3442391572      8.74e-07  Convergence criterion met
 Total energy in the final basis set =    -2755.3442391572
        RIMP2         total energy =     -2760.4334001506 a.u.

                    Orbital Energies (a.u.)
 --------------------------------------------------------------

 Alpha MOs
 -- Occupied --
-92.0147 -91.9956 -91.9820 -91.9595 -26.3426 -20.6149 -20.5893 -20.5875
-20.5615 -11.4095 -11.3813 -11.3112 -11.3108 -11.3100 -11.3016 -11.2982
-11.2918 -11.2889 -11.2861 -11.2856 -11.2845 -11.2844 -11.2826 -11.2747
-11.2737 -11.2611 -11.2598 -11.2511 -11.2403  -9.0135  -8.9958  -8.9843
 -8.9620  -6.6943  -6.6938  -6.6932  -6.6769  -6.6761  -6.6750  -6.6654
 -6.6645  -6.6633  -6.6433  -6.6423  -6.6413  -1.6597  -1.4674  -1.4125
 -1.4094  -1.3701  -1.2298  -1.2034  -1.1755  -1.1375  -1.1014  -1.0482
 -1.0447  -1.0235  -1.0047  -0.9994  -0.9630  -0.9593  -0.9497  -0.9406
 -0.8956  -0.8700  -0.8656  -0.8096  -0.8023  -0.7896  -0.7850  -0.7691
 -0.7564  -0.7385  -0.7246  -0.7140  -0.6993  -0.6892  -0.6847  -0.6809
 -0.6739  -0.6633  -0.6574  -0.6494  -0.6387  -0.6319  -0.6214  -0.6158
 -0.6122  -0.5984  -0.5934  -0.5768  -0.5720  -0.5652  -0.5601  -0.5518
 -0.5506  -0.5351  -0.5318  -0.5297  -0.5147  -0.5090  -0.5085  -0.5016
 -0.4855  -0.4815  -0.4773  -0.4739  -0.4720  -0.4673  -0.4612  -0.4477
 -0.4331  -0.3954  -0.3873  -0.3719  -0.3510  -0.2982  -0.2891  -0.2190

          Ground-State Mulliken Net Atomic Charges

     Atom                 Charge (a.u.)
  ----------------------------------------
      1 C                    -0.070628
      2 C                    -0.251295
      3 S                    -0.132347
      4 C                    -0.048304
      5 H                     0.194484
      6 C                    -0.050894
      7 C                     0.225425
      8 C                     0.231857
      9 C                    -0.075017
     10 C                    -0.052844
     11 O                    -0.333706
     12 O                    -0.343695
     13 C                    -0.083198
     14 H                     0.121356
     15 H                     0.092304
     16 H                     0.093044
     17 C                    -0.088185
     18 H                     0.124598
     19 H                     0.093061
     20 H                     0.090426
     21 C                    -0.283236
     22 S                    -0.091438
     23 C                     0.136785
     24 H                     0.200027
     25 C                    -0.088874
     26 S                     0.067322
     27 C                    -0.208943
     28 C                     0.036688
     29 C                    -0.128255
     30 S                    -0.009464
     31 C                    -0.160951
     32 C                     0.407094
     33 F                    -0.207795
     34 C                     0.443214
     35 O                    -0.460481
     36 O                    -0.300355
     37 C                    -0.058802
     38 H                     0.121519
     39 H                     0.095130
     40 H                     0.095186
     41 H                     0.217990
     42 H                     0.118521
     43 H                     0.116363
     44 H                     0.206314
  ----------------------------------------
  Sum of atomic charges =     0.000000

                    Cartesian Multipole Moments
 -----------------------------------------------------------------
    Charge (ESU x 10^10)
                 0.0000
    Dipole Moment (Debye)
         X      -0.5552      Y       1.5802      Z       3.5247
       Tot       3.9024
    Quadrupole Moments (Debye-Ang)
        XX    -201.9219     XY      -1.4067     YY    -169.5526
        XZ       0.4798     YZ     -11.7030     ZZ    -187.9018

 Total job time:  335.82s(wall), 10781.77s(cpu)
        *  Thank you very much for using Q-Chem.  Have a nice day.  *
