 Q-Chem 5.4, Q-Chem, Inc., Pleasanton, CA (2021)
 Q-Chem 5.4.0 for Intel X86 EM64T Linux

User input:
--------------------------------------------------------------
$molecule
0 1
C	0.284919	-8.517702	0.147685
C	-0.728574	-7.641575	-0.212552
S	1.745304	-7.638634	0.661757
C	-0.374824	-6.264785	-0.083761
H	-1.715621	-7.966081	-0.565513
C	0.965104	-6.072714	0.405665
C	1.502136	-4.787049	0.574617
C	-1.214687	-5.162801	-0.413763
C	-0.675870	-3.874817	-0.248748
C	0.664513	-3.683952	0.243888
O	-2.464209	-5.499772	-0.838511
O	2.757750	-4.459055	1.000176
C	3.441858	-5.329063	1.893778
H	4.303826	-4.755694	2.284868
H	3.828743	-6.238095	1.383341
H	2.792824	-5.637262	2.741817
C	-3.241222	-4.572261	-1.586168
H	-4.108274	-5.139743	-1.974033
H	-2.668916	-4.153131	-2.441448
H	-3.620041	-3.739531	-0.954660
C	1.015668	-2.306654	0.369302
S	-1.453394	-2.306501	-0.517367
C	0.000000	-1.435185	0.000000
H	2.000559	-1.978138	0.724300
C	0.000000	0.000000	0.000000
S	0.452792	0.783312	1.507541
C	1.238397	2.145556	0.718873
C	0.452875	0.782898	-1.067872
C	1.145945	1.987956	-0.686410
S	0.333556	0.570531	-2.805516
C	1.204604	2.090290	-3.054530
C	1.556633	2.704929	-1.862551
F	2.220797	3.864903	-1.819088
C	1.430252	2.477345	-4.456084
O	1.052242	1.806648	-5.406510
O	2.099050	3.650663	-4.569225
C	2.351116	4.076808	-5.916207
H	2.895579	5.033821	-5.833064
H	1.401015	4.217390	-6.470168
H	2.962391	3.327969	-6.459293
H	1.699302	2.946693	1.306486
H	0.588198	-9.143623	-0.699838
H	-0.014470	-9.149441	0.992270
H	0.362373	-1.443175	-1.017360
$end

$rem
JOBTYPE		SP
EXCHANGE	HF
CORRELATION	pRIMP2
BASIS		cc-pvtz
METHOD		rimp2
AUX_BASIS	rimp2-cc-pvtz
SOLVENT_METHOD	PCM
PURECART	11111
SYMMETRY	false
MEM_TOTAL	110000
SCF_CONVERGENCE = 6
THRESH=10
GUI = 2
$end

$solvent
dielectric 4.90
$end
--------------------------------------------------------------

             Standard Nuclear Orientation (Angstroms)
    I     Atom           X                Y                Z
 ----------------------------------------------------------------
    1      C       0.2849190000    -8.5177020000     0.1476850000
    2      C      -0.7285740000    -7.6415750000    -0.2125520000
    3      S       1.7453040000    -7.6386340000     0.6617570000
    4      C      -0.3748240000    -6.2647850000    -0.0837610000
    5      H      -1.7156210000    -7.9660810000    -0.5655130000
    6      C       0.9651040000    -6.0727140000     0.4056650000
    7      C       1.5021360000    -4.7870490000     0.5746170000
    8      C      -1.2146870000    -5.1628010000    -0.4137630000
    9      C      -0.6758700000    -3.8748170000    -0.2487480000
   10      C       0.6645130000    -3.6839520000     0.2438880000
   11      O      -2.4642090000    -5.4997720000    -0.8385110000
   12      O       2.7577500000    -4.4590550000     1.0001760000
   13      C       3.4418580000    -5.3290630000     1.8937780000
   14      H       4.3038260000    -4.7556940000     2.2848680000
   15      H       3.8287430000    -6.2380950000     1.3833410000
   16      H       2.7928240000    -5.6372620000     2.7418170000
   17      C      -3.2412220000    -4.5722610000    -1.5861680000
   18      H      -4.1082740000    -5.1397430000    -1.9740330000
   19      H      -2.6689160000    -4.1531310000    -2.4414480000
   20      H      -3.6200410000    -3.7395310000    -0.9546600000
   21      C       1.0156680000    -2.3066540000     0.3693020000
   22      S      -1.4533940000    -2.3065010000    -0.5173670000
   23      C       0.0000000000    -1.4351850000     0.0000000000
   24      H       2.0005590000    -1.9781380000     0.7243000000
   25      C       0.0000000000     0.0000000000     0.0000000000
   26      S       0.4527920000     0.7833120000     1.5075410000
   27      C       1.2383970000     2.1455560000     0.7188730000
   28      C       0.4528750000     0.7828980000    -1.0678720000
   29      C       1.1459450000     1.9879560000    -0.6864100000
   30      S       0.3335560000     0.5705310000    -2.8055160000
   31      C       1.2046040000     2.0902900000    -3.0545300000
   32      C       1.5566330000     2.7049290000    -1.8625510000
   33      F       2.2207970000     3.8649030000    -1.8190880000
   34      C       1.4302520000     2.4773450000    -4.4560840000
   35      O       1.0522420000     1.8066480000    -5.4065100000
   36      O       2.0990500000     3.6506630000    -4.5692250000
   37      C       2.3511160000     4.0768080000    -5.9162070000
   38      H       2.8955790000     5.0338210000    -5.8330640000
   39      H       1.4010150000     4.2173900000    -6.4701680000
   40      H       2.9623910000     3.3279690000    -6.4592930000
   41      H       1.6993020000     2.9466930000     1.3064860000
   42      H       0.5881980000    -9.1436230000    -0.6998380000
   43      H      -0.0144700000    -9.1494410000     0.9922700000
   44      H       0.3623730000    -1.4431750000    -1.0173600000
 ----------------------------------------------------------------

   11   -2755.3304685884      6.95e-07  Convergence criterion met
 Total energy in the final basis set =    -2755.3304685884
        RIMP2         total energy =     -2760.4230869521 a.u.

                    Orbital Energies (a.u.)
 --------------------------------------------------------------

 Alpha MOs
 -- Occupied --
-92.0129 -92.0035 -91.9727 -91.9578 -26.3454 -20.6157 -20.5870 -20.5855
-20.5621 -11.4105 -11.3855 -11.3162 -11.3086 -11.3065 -11.3051 -11.2991
-11.2954 -11.2894 -11.2863 -11.2832 -11.2828 -11.2813 -11.2774 -11.2724
-11.2718 -11.2573 -11.2570 -11.2491 -11.2355  -9.0118  -9.0034  -8.9752
 -8.9604  -6.6925  -6.6919  -6.6915  -6.6844  -6.6837  -6.6826  -6.6563
 -6.6554  -6.6541  -6.6416  -6.6407  -6.6397  -1.6624  -1.4682  -1.4094
 -1.4083  -1.3709  -1.2325  -1.2013  -1.1727  -1.1383  -1.1001  -1.0478
 -1.0447  -1.0248  -1.0021  -0.9960  -0.9640  -0.9576  -0.9483  -0.9417
 -0.8920  -0.8715  -0.8631  -0.8160  -0.7948  -0.7898  -0.7837  -0.7675
 -0.7592  -0.7346  -0.7271  -0.7111  -0.7011  -0.6939  -0.6856  -0.6795
 -0.6747  -0.6659  -0.6548  -0.6479  -0.6349  -0.6297  -0.6195  -0.6148
 -0.6104  -0.6000  -0.5932  -0.5756  -0.5713  -0.5641  -0.5570  -0.5538
 -0.5526  -0.5319  -0.5269  -0.5235  -0.5125  -0.5098  -0.5068  -0.5005
 -0.4854  -0.4822  -0.4756  -0.4747  -0.4715  -0.4672  -0.4588  -0.4450
 -0.4237  -0.3981  -0.3836  -0.3693  -0.3502  -0.3050  -0.2881  -0.2191

          Ground-State Mulliken Net Atomic Charges

     Atom                 Charge (a.u.)
  ----------------------------------------
      1 C                    -0.070049
      2 C                    -0.263732
      3 S                    -0.136249
      4 C                    -0.043648
      5 H                     0.192992
      6 C                    -0.052278
      7 C                     0.222908
      8 C                     0.225312
      9 C                    -0.077208
     10 C                    -0.044739
     11 O                    -0.335980
     12 O                    -0.343786
     13 C                    -0.082534
     14 H                     0.119650
     15 H                     0.092070
     16 H                     0.092678
     17 C                    -0.086267
     18 H                     0.122415
     19 H                     0.092376
     20 H                     0.089998
     21 C                    -0.263075
     22 S                    -0.078572
     23 C                     0.041250
     24 H                     0.209038
     25 C                    -0.072945
     26 S                     0.089246
     27 C                    -0.172280
     28 C                     0.001385
     29 C                    -0.092206
     30 S                     0.014795
     31 C                    -0.155280
     32 C                     0.393346
     33 F                    -0.204709
     34 C                     0.445784
     35 O                    -0.461012
     36 O                    -0.301104
     37 C                    -0.058337
     38 H                     0.121582
     39 H                     0.095280
     40 H                     0.095284
     41 H                     0.217749
     42 H                     0.116986
     43 H                     0.114404
     44 H                     0.189465
  ----------------------------------------
  Sum of atomic charges =     0.000000

                    Cartesian Multipole Moments
 -----------------------------------------------------------------
    Charge (ESU x 10^10)
                -0.0000
    Dipole Moment (Debye)
         X       1.7445      Y       3.1929      Z       2.2960
       Tot       4.3022
    Quadrupole Moments (Debye-Ang)
        XX    -186.8807     XY      10.3725     YY    -180.4456
        XZ       5.2020     YZ      -5.6090     ZZ    -198.4695

 Total job time:  344.45s(wall), 11245.85s(cpu)
        *  Thank you very much for using Q-Chem.  Have a nice day.  *
