 Q-Chem 5.4, Q-Chem, Inc., Pleasanton, CA (2021)
 Q-Chem 5.4.0 for Intel X86 EM64T Linux

User input:
--------------------------------------------------------------
$molecule
0 1
C	0.270358	-8.517702	-0.172904
C	-0.548363	-7.641575	0.524688
S	1.445750	-7.638634	-1.180599
C	-0.259951	-6.264785	0.282727
H	-1.347559	-7.966081	1.203014
C	0.833868	-6.072714	-0.632972
C	1.248701	-4.787049	-1.013580
C	-0.965673	-5.162801	0.845068
C	-0.553357	-3.874817	0.460946
C	0.543470	-3.683952	-0.453541
O	-1.958276	-5.499772	1.714812
O	2.245053	-4.459055	-1.888193
C	3.360989	-5.329063	-2.033848
H	4.130667	-4.755694	-2.584788
H	3.112380	-6.238095	-2.624118
H	3.770895	-5.637262	-1.047748
C	-2.994272	-4.572261	2.013896
H	-3.763700	-5.139743	2.570853
H	-3.448815	-4.153131	1.090625
H	-2.636780	-3.739531	2.657717
C	0.827659	-2.306654	-0.694943
S	-1.174750	-2.306501	0.999993
C	-0.000000	-1.435185	-0.000000
H	1.627541	-1.978138	-1.370385
C	0.000000	0.000000	0.000000
S	0.382799	0.819795	1.507541
C	1.046687	2.245325	0.718873
C	0.382918	0.819389	-1.067872
C	0.968323	2.080267	-0.686410
S	0.282561	0.597432	-2.805516
C	1.017839	2.187324	-3.054530
C	1.314960	2.830306	-1.862551
F	1.875498	4.043751	-1.819088
C	1.208895	2.592573	-4.456084
O	0.890778	1.891482	-5.406510
O	1.772886	3.819715	-4.569225
C	1.986852	4.266207	-5.916207
H	2.445834	5.267032	-5.833064
H	1.028114	4.323448	-6.470168
H	2.661066	3.573494	-6.459293
H	1.436015	3.083584	1.306486
H	-0.311979	-9.143623	-0.859314
H	0.852097	-9.149441	0.508666
H	-0.699874	-1.443175	-0.822504
$end

$rem
JOBTYPE		SP
EXCHANGE	HF
CORRELATION	pRIMP2
BASIS		cc-pvtz
METHOD		rimp2
AUX_BASIS	rimp2-cc-pvtz
SOLVENT_METHOD	PCM
PURECART	11111
SYMMETRY	false
MEM_TOTAL	110000
SCF_CONVERGENCE = 6
THRESH=10
GUI = 2
$end

$solvent
dielectric 4.90
$end
--------------------------------------------------------------

             Standard Nuclear Orientation (Angstroms)
    I     Atom           X                Y                Z
 ----------------------------------------------------------------
    1      C       0.2703580000    -8.5177020000    -0.1729040000
    2      C      -0.5483630000    -7.6415750000     0.5246880000
    3      S       1.4457500000    -7.6386340000    -1.1805990000
    4      C      -0.2599510000    -6.2647850000     0.2827270000
    5      H      -1.3475590000    -7.9660810000     1.2030140000
    6      C       0.8338680000    -6.0727140000    -0.6329720000
    7      C       1.2487010000    -4.7870490000    -1.0135800000
    8      C      -0.9656730000    -5.1628010000     0.8450680000
    9      C      -0.5533570000    -3.8748170000     0.4609460000
   10      C       0.5434700000    -3.6839520000    -0.4535410000
   11      O      -1.9582760000    -5.4997720000     1.7148120000
   12      O       2.2450530000    -4.4590550000    -1.8881930000
   13      C       3.3609890000    -5.3290630000    -2.0338480000
   14      H       4.1306670000    -4.7556940000    -2.5847880000
   15      H       3.1123800000    -6.2380950000    -2.6241180000
   16      H       3.7708950000    -5.6372620000    -1.0477480000
   17      C      -2.9942720000    -4.5722610000     2.0138960000
   18      H      -3.7637000000    -5.1397430000     2.5708530000
   19      H      -3.4488150000    -4.1531310000     1.0906250000
   20      H      -2.6367800000    -3.7395310000     2.6577170000
   21      C       0.8276590000    -2.3066540000    -0.6949430000
   22      S      -1.1747500000    -2.3065010000     0.9999930000
   23      C       0.0000000000    -1.4351850000     0.0000000000
   24      H       1.6275410000    -1.9781380000    -1.3703850000
   25      C       0.0000000000     0.0000000000     0.0000000000
   26      S       0.3827990000     0.8197950000     1.5075410000
   27      C       1.0466870000     2.2453250000     0.7188730000
   28      C       0.3829180000     0.8193890000    -1.0678720000
   29      C       0.9683230000     2.0802670000    -0.6864100000
   30      S       0.2825610000     0.5974320000    -2.8055160000
   31      C       1.0178390000     2.1873240000    -3.0545300000
   32      C       1.3149600000     2.8303060000    -1.8625510000
   33      F       1.8754980000     4.0437510000    -1.8190880000
   34      C       1.2088950000     2.5925730000    -4.4560840000
   35      O       0.8907780000     1.8914820000    -5.4065100000
   36      O       1.7728860000     3.8197150000    -4.5692250000
   37      C       1.9868520000     4.2662070000    -5.9162070000
   38      H       2.4458340000     5.2670320000    -5.8330640000
   39      H       1.0281140000     4.3234480000    -6.4701680000
   40      H       2.6610660000     3.5734940000    -6.4592930000
   41      H       1.4360150000     3.0835840000     1.3064860000
   42      H      -0.3119790000    -9.1436230000    -0.8593140000
   43      H       0.8520970000    -9.1494410000     0.5086660000
   44      H      -0.6998740000    -1.4431750000    -0.8225040000
 ----------------------------------------------------------------

   11   -2755.3353818964      7.21e-07  Convergence criterion met
 Total energy in the final basis set =    -2755.3353818964
        RIMP2         total energy =     -2760.4273085185 a.u.

                    Orbital Energies (a.u.)
 --------------------------------------------------------------

 Alpha MOs
 -- Occupied --
-92.0114 -92.0012 -91.9784 -91.9578 -26.3447 -20.6155 -20.5870 -20.5869
-20.5620 -11.4103 -11.3842 -11.3119 -11.3090 -11.3072 -11.3041 -11.2996
-11.2990 -11.2893 -11.2862 -11.2846 -11.2832 -11.2825 -11.2801 -11.2725
-11.2724 -11.2580 -11.2574 -11.2493 -11.2362  -9.0105  -9.0012  -8.9805
 -8.9604  -6.6912  -6.6905  -6.6901  -6.6823  -6.6815  -6.6804  -6.6617
 -6.6608  -6.6595  -6.6416  -6.6407  -6.6397  -1.6616  -1.4680  -1.4103
 -1.4087  -1.3707  -1.2311  -1.2025  -1.1733  -1.1377  -1.1006  -1.0469
 -1.0458  -1.0240  -1.0032  -0.9973  -0.9628  -0.9592  -0.9485  -0.9415
 -0.8935  -0.8712  -0.8641  -0.8112  -0.7991  -0.7903  -0.7839  -0.7674
 -0.7586  -0.7359  -0.7264  -0.7102  -0.7002  -0.6949  -0.6854  -0.6802
 -0.6745  -0.6646  -0.6558  -0.6484  -0.6365  -0.6304  -0.6197  -0.6147
 -0.6119  -0.5995  -0.5929  -0.5776  -0.5714  -0.5658  -0.5581  -0.5550
 -0.5449  -0.5319  -0.5303  -0.5264  -0.5126  -0.5089  -0.5073  -0.5017
 -0.4850  -0.4818  -0.4765  -0.4745  -0.4692  -0.4676  -0.4606  -0.4463
 -0.4262  -0.3980  -0.3846  -0.3697  -0.3512  -0.3019  -0.2889  -0.2190

          Ground-State Mulliken Net Atomic Charges

     Atom                 Charge (a.u.)
  ----------------------------------------
      1 C                    -0.070175
      2 C                    -0.262211
      3 S                    -0.135913
      4 C                    -0.046043
      5 H                     0.193108
      6 C                    -0.053320
      7 C                     0.221329
      8 C                     0.231023
      9 C                    -0.077246
     10 C                    -0.036468
     11 O                    -0.334966
     12 O                    -0.342887
     13 C                    -0.082865
     14 H                     0.120208
     15 H                     0.092303
     16 H                     0.092524
     17 C                    -0.086922
     18 H                     0.123681
     19 H                     0.092513
     20 H                     0.089903
     21 C                    -0.298312
     22 S                    -0.078752
     23 C                     0.086267
     24 H                     0.211530
     25 C                    -0.054021
     26 S                     0.094227
     27 C                    -0.184722
     28 C                    -0.048524
     29 C                    -0.090031
     30 S                     0.016493
     31 C                    -0.155783
     32 C                     0.397470
     33 F                    -0.205855
     34 C                     0.445694
     35 O                    -0.460816
     36 O                    -0.300914
     37 C                    -0.058400
     38 H                     0.121577
     39 H                     0.095312
     40 H                     0.095212
     41 H                     0.216804
     42 H                     0.117120
     43 H                     0.114639
     44 H                     0.196211
  ----------------------------------------
  Sum of atomic charges =     0.000000

                    Cartesian Multipole Moments
 -----------------------------------------------------------------
    Charge (ESU x 10^10)
                -0.0000
    Dipole Moment (Debye)
         X       0.7755      Y       2.8045      Z       2.4543
       Tot       3.8066
    Quadrupole Moments (Debye-Ang)
        XX    -182.8213     XY       9.1696     YY    -178.1870
        XZ      -9.4583     YZ      -9.4183     ZZ    -203.8129

 Total job time:  324.16s(wall), 10522.09s(cpu)
        *  Thank you very much for using Q-Chem.  Have a nice day.  *
