 Q-Chem 5.4, Q-Chem, Inc., Pleasanton, CA (2021)
 Q-Chem 5.4.0 for Intel X86 EM64T Linux

User input:
--------------------------------------------------------------
$molecule
0 1
C	-0.194917	-8.517702	0.254945
C	0.335839	-7.641575	-0.680596
S	-0.954772	-7.638634	1.603876
C	0.147576	-6.264785	-0.354585
H	0.854836	-7.966081	-1.591356
C	-0.567090	-6.072714	0.879999
C	-0.826731	-4.787049	1.379534
C	0.618405	-5.162801	-1.124384
C	0.362333	-3.874817	-0.622407
C	-0.355575	-3.683952	0.612067
O	1.253677	-5.499772	-2.281166
O	-1.463859	-4.459055	2.542174
C	-2.462679	-5.329063	3.060718
H	-2.997507	-4.755694	3.841678
H	-2.027179	-6.238095	3.530361
H	-3.185132	-5.637262	2.274283
C	2.124902	-4.572261	-2.916545
H	2.657438	-5.139743	-3.703073
H	2.867810	-4.153131	-2.204417
H	1.568770	-3.739531	-3.399269
C	-0.540061	-2.306654	0.936109
S	0.761887	-2.306501	-1.341474
C	-0.000000	-1.435185	-0.000000
H	-1.060690	-1.978138	1.844392
C	0.000000	0.000000	0.000000
S	0.079327	0.901280	1.507541
C	0.215617	2.467903	0.718873
C	0.079577	0.900940	-1.067872
C	0.198433	2.285998	-0.686410
S	0.061187	0.658044	-2.805516
C	0.208347	2.403534	-3.054530
C	0.267636	3.109360	-1.862551
F	0.379347	4.441341	-1.819088
C	0.249278	2.849688	-4.456084
O	0.190132	2.082076	-5.406510
O	0.359548	4.195721	-4.569225
C	0.407901	4.688467	-5.916207
H	0.496901	5.785916	-5.833064
H	-0.512596	4.414348	-6.470168
H	1.278377	4.268124	-6.459293
H	0.294764	3.388767	1.306486
H	0.587067	-9.143623	0.700788
H	-0.974683	-9.149441	-0.186556
H	0.938979	-1.443175	0.533530
$end

$rem
JOBTYPE		SP
EXCHANGE	HF
CORRELATION	pRIMP2
BASIS		cc-pvtz
METHOD		rimp2
AUX_BASIS	rimp2-cc-pvtz
SOLVENT_METHOD	PCM
PURECART	11111
SYMMETRY	false
MEM_TOTAL	110000
SCF_CONVERGENCE = 6
THRESH=10
GUI = 2
$end

$solvent
dielectric 4.90
$end
--------------------------------------------------------------

             Standard Nuclear Orientation (Angstroms)
    I     Atom           X                Y                Z
 ----------------------------------------------------------------
    1      C      -0.1949170000    -8.5177020000     0.2549450000
    2      C       0.3358390000    -7.6415750000    -0.6805960000
    3      S      -0.9547720000    -7.6386340000     1.6038760000
    4      C       0.1475760000    -6.2647850000    -0.3545850000
    5      H       0.8548360000    -7.9660810000    -1.5913560000
    6      C      -0.5670900000    -6.0727140000     0.8799990000
    7      C      -0.8267310000    -4.7870490000     1.3795340000
    8      C       0.6184050000    -5.1628010000    -1.1243840000
    9      C       0.3623330000    -3.8748170000    -0.6224070000
   10      C      -0.3555750000    -3.6839520000     0.6120670000
   11      O       1.2536770000    -5.4997720000    -2.2811660000
   12      O      -1.4638590000    -4.4590550000     2.5421740000
   13      C      -2.4626790000    -5.3290630000     3.0607180000
   14      H      -2.9975070000    -4.7556940000     3.8416780000
   15      H      -2.0271790000    -6.2380950000     3.5303610000
   16      H      -3.1851320000    -5.6372620000     2.2742830000
   17      C       2.1249020000    -4.5722610000    -2.9165450000
   18      H       2.6574380000    -5.1397430000    -3.7030730000
   19      H       2.8678100000    -4.1531310000    -2.2044170000
   20      H       1.5687700000    -3.7395310000    -3.3992690000
   21      C      -0.5400610000    -2.3066540000     0.9361090000
   22      S       0.7618870000    -2.3065010000    -1.3414740000
   23      C       0.0000000000    -1.4351850000     0.0000000000
   24      H      -1.0606900000    -1.9781380000     1.8443920000
   25      C       0.0000000000     0.0000000000     0.0000000000
   26      S       0.0793270000     0.9012800000     1.5075410000
   27      C       0.2156170000     2.4679030000     0.7188730000
   28      C       0.0795770000     0.9009400000    -1.0678720000
   29      C       0.1984330000     2.2859980000    -0.6864100000
   30      S       0.0611870000     0.6580440000    -2.8055160000
   31      C       0.2083470000     2.4035340000    -3.0545300000
   32      C       0.2676360000     3.1093600000    -1.8625510000
   33      F       0.3793470000     4.4413410000    -1.8190880000
   34      C       0.2492780000     2.8496880000    -4.4560840000
   35      O       0.1901320000     2.0820760000    -5.4065100000
   36      O       0.3595480000     4.1957210000    -4.5692250000
   37      C       0.4079010000     4.6884670000    -5.9162070000
   38      H       0.4969010000     5.7859160000    -5.8330640000
   39      H      -0.5125960000     4.4143480000    -6.4701680000
   40      H       1.2783770000     4.2681240000    -6.4592930000
   41      H       0.2947640000     3.3887670000     1.3064860000
   42      H       0.5870670000    -9.1436230000     0.7007880000
   43      H      -0.9746830000    -9.1494410000    -0.1865560000
   44      H       0.9389790000    -1.4431750000     0.5335300000
 ----------------------------------------------------------------

   11   -2755.3440982631      8.53e-07  Convergence criterion met
 Total energy in the final basis set =    -2755.3440982631
        RIMP2         total energy =     -2760.4331888569 a.u.

                    Orbital Energies (a.u.)
 --------------------------------------------------------------

 Alpha MOs
 -- Occupied --
-92.0140 -91.9941 -91.9806 -91.9595 -26.3420 -20.6145 -20.5881 -20.5880
-20.5611 -11.4089 -11.3805 -11.3100 -11.3099 -11.3095 -11.3032 -11.2970
-11.2927 -11.2886 -11.2847 -11.2845 -11.2841 -11.2835 -11.2834 -11.2748
-11.2729 -11.2606 -11.2594 -11.2510 -11.2397  -9.0129  -8.9943  -8.9828
 -8.9621  -6.6937  -6.6932  -6.6926  -6.6753  -6.6746  -6.6734  -6.6639
 -6.6630  -6.6617  -6.6433  -6.6424  -6.6414  -1.6592  -1.4669  -1.4115
 -1.4098  -1.3696  -1.2295  -1.2028  -1.1752  -1.1371  -1.1010  -1.0481
 -1.0437  -1.0240  -1.0047  -0.9980  -0.9633  -0.9573  -0.9493  -0.9416
 -0.8947  -0.8687  -0.8661  -0.8148  -0.7937  -0.7900  -0.7850  -0.7696
 -0.7562  -0.7379  -0.7242  -0.7138  -0.6972  -0.6896  -0.6843  -0.6809
 -0.6735  -0.6627  -0.6566  -0.6494  -0.6383  -0.6309  -0.6212  -0.6159
 -0.6110  -0.5991  -0.5931  -0.5767  -0.5713  -0.5652  -0.5593  -0.5581
 -0.5500  -0.5331  -0.5311  -0.5262  -0.5141  -0.5111  -0.5081  -0.5017
 -0.4849  -0.4783  -0.4766  -0.4737  -0.4695  -0.4676  -0.4609  -0.4480
 -0.4308  -0.3959  -0.3860  -0.3714  -0.3512  -0.2982  -0.2885  -0.2193

          Ground-State Mulliken Net Atomic Charges

     Atom                 Charge (a.u.)
  ----------------------------------------
      1 C                    -0.070519
      2 C                    -0.251635
      3 S                    -0.133028
      4 C                    -0.050233
      5 H                     0.194603
      6 C                    -0.049742
      7 C                     0.220345
      8 C                     0.232284
      9 C                    -0.073322
     10 C                    -0.015759
     11 O                    -0.334143
     12 O                    -0.343711
     13 C                    -0.082816
     14 H                     0.120067
     15 H                     0.092228
     16 H                     0.093293
     17 C                    -0.089042
     18 H                     0.124457
     19 H                     0.092860
     20 H                     0.092273
     21 C                    -0.337387
     22 S                    -0.097226
     23 C                     0.174919
     24 H                     0.198910
     25 C                    -0.058625
     26 S                     0.079379
     27 C                    -0.205707
     28 C                    -0.033177
     29 C                    -0.111232
     30 S                    -0.003340
     31 C                    -0.160368
     32 C                     0.405397
     33 F                    -0.208386
     34 C                     0.442383
     35 O                    -0.460125
     36 O                    -0.300462
     37 C                    -0.058845
     38 H                     0.121332
     39 H                     0.095224
     40 H                     0.094974
     41 H                     0.216921
     42 H                     0.118449
     43 H                     0.116231
     44 H                     0.202303
  ----------------------------------------
  Sum of atomic charges =     0.000000

                    Cartesian Multipole Moments
 -----------------------------------------------------------------
    Charge (ESU x 10^10)
                -0.0000
    Dipole Moment (Debye)
         X       0.8894      Y       1.6785      Z       3.1374
       Tot       3.6676
    Quadrupole Moments (Debye-Ang)
        XX    -191.1762     XY      -0.8192     YY    -170.5644
        XZ      -9.9748     YZ      -3.7692     ZZ    -198.5357

 Total job time:  324.77s(wall), 10341.82s(cpu)
        *  Thank you very much for using Q-Chem.  Have a nice day.  *
