 Q-Chem 5.4, Q-Chem, Inc., Pleasanton, CA (2021)
 Q-Chem 5.4.0 for Intel X86 EM64T Linux

User input:
--------------------------------------------------------------
$molecule
0 1
C	0.236226	-8.517702	-0.217225
C	-0.448921	-7.641575	0.611939
S	1.218777	-7.638634	-1.413715
C	-0.206907	-6.264785	0.323572
H	-1.118185	-7.966081	1.418739
C	0.711285	-6.072714	-0.768156
C	1.053725	-4.787049	-1.215016
C	-0.804258	-5.162801	0.999917
C	-0.464908	-3.874817	0.550033
C	0.456457	-3.683952	-0.541024
O	-1.630752	-5.499772	2.028811
O	1.883064	-4.459055	-2.249357
C	2.956754	-5.329063	-2.586579
H	3.619069	-4.755694	-3.262802
H	2.609423	-6.238095	-3.124711
H	3.531667	-5.637262	-1.686639
C	-2.599073	-4.572261	2.503251
H	-3.260097	-5.139743	3.185356
H	-3.207034	-4.153131	1.672937
H	-2.135214	-3.739531	3.075213
C	0.694410	-2.306654	-0.828107
S	-0.983256	-2.306501	1.188794
C	-0.000000	-1.435185	-0.000000
H	1.364851	-1.978138	-1.632185
C	0.000000	0.000000	0.000000
S	0.309893	0.850039	1.507541
C	0.847011	2.328006	0.718873
C	0.310046	0.849645	-1.067872
C	0.783331	2.156746	-0.686410
S	0.229416	0.619785	-2.805516
C	0.823328	2.267711	-3.054530
C	1.063278	2.934142	-1.862551
F	1.515925	4.191824	-1.819088
C	0.978337	2.688069	-4.456084
O	0.722535	1.961921	-5.406510
O	1.433229	3.959697	-4.569225
C	1.607467	4.423139	-5.916207
H	1.977475	5.460158	-5.833064
H	0.647388	4.396602	-6.470168
H	2.339490	3.791823	-6.459293
H	1.161798	3.197007	1.306486
H	-0.456457	-9.143623	-0.792084
H	0.927480	-9.149441	0.352973
H	-0.832067	-1.443175	-0.688477
$end

$rem
JOBTYPE		SP
EXCHANGE	HF
CORRELATION	pRIMP2
BASIS		cc-pvtz
METHOD		rimp2
AUX_BASIS	rimp2-cc-pvtz
SOLVENT_METHOD	PCM
PURECART	11111
SYMMETRY	false
MEM_TOTAL	110000
SCF_CONVERGENCE = 6
THRESH=10
GUI = 2
$end

$solvent
dielectric 4.90
$end
--------------------------------------------------------------

             Standard Nuclear Orientation (Angstroms)
    I     Atom           X                Y                Z
 ----------------------------------------------------------------
    1      C       0.2362260000    -8.5177020000    -0.2172250000
    2      C      -0.4489210000    -7.6415750000     0.6119390000
    3      S       1.2187770000    -7.6386340000    -1.4137150000
    4      C      -0.2069070000    -6.2647850000     0.3235720000
    5      H      -1.1181850000    -7.9660810000     1.4187390000
    6      C       0.7112850000    -6.0727140000    -0.7681560000
    7      C       1.0537250000    -4.7870490000    -1.2150160000
    8      C      -0.8042580000    -5.1628010000     0.9999170000
    9      C      -0.4649080000    -3.8748170000     0.5500330000
   10      C       0.4564570000    -3.6839520000    -0.5410240000
   11      O      -1.6307520000    -5.4997720000     2.0288110000
   12      O       1.8830640000    -4.4590550000    -2.2493570000
   13      C       2.9567540000    -5.3290630000    -2.5865790000
   14      H       3.6190690000    -4.7556940000    -3.2628020000
   15      H       2.6094230000    -6.2380950000    -3.1247110000
   16      H       3.5316670000    -5.6372620000    -1.6866390000
   17      C      -2.5990730000    -4.5722610000     2.5032510000
   18      H      -3.2600970000    -5.1397430000     3.1853560000
   19      H      -3.2070340000    -4.1531310000     1.6729370000
   20      H      -2.1352140000    -3.7395310000     3.0752130000
   21      C       0.6944100000    -2.3066540000    -0.8281070000
   22      S      -0.9832560000    -2.3065010000     1.1887940000
   23      C       0.0000000000    -1.4351850000     0.0000000000
   24      H       1.3648510000    -1.9781380000    -1.6321850000
   25      C       0.0000000000     0.0000000000     0.0000000000
   26      S       0.3098930000     0.8500390000     1.5075410000
   27      C       0.8470110000     2.3280060000     0.7188730000
   28      C       0.3100460000     0.8496450000    -1.0678720000
   29      C       0.7833310000     2.1567460000    -0.6864100000
   30      S       0.2294160000     0.6197850000    -2.8055160000
   31      C       0.8233280000     2.2677110000    -3.0545300000
   32      C       1.0632780000     2.9341420000    -1.8625510000
   33      F       1.5159250000     4.1918240000    -1.8190880000
   34      C       0.9783370000     2.6880690000    -4.4560840000
   35      O       0.7225350000     1.9619210000    -5.4065100000
   36      O       1.4332290000     3.9596970000    -4.5692250000
   37      C       1.6074670000     4.4231390000    -5.9162070000
   38      H       1.9774750000     5.4601580000    -5.8330640000
   39      H       0.6473880000     4.3966020000    -6.4701680000
   40      H       2.3394900000     3.7918230000    -6.4592930000
   41      H       1.1617980000     3.1970070000     1.3064860000
   42      H      -0.4564570000    -9.1436230000    -0.7920840000
   43      H       0.9274800000    -9.1494410000     0.3529730000
   44      H      -0.8320670000    -1.4431750000    -0.6884770000
 ----------------------------------------------------------------

   11   -2755.3377545092      7.62e-07  Convergence criterion met
 Total energy in the final basis set =    -2755.3377545092
        RIMP2         total energy =     -2760.4295088960 a.u.

                    Orbital Energies (a.u.)
 --------------------------------------------------------------

 Alpha MOs
 -- Occupied --
-92.0126 -91.9997 -91.9802 -91.9583 -26.3441 -20.6154 -20.5877 -20.5871
-20.5619 -11.4100 -11.3834 -11.3093 -11.3085 -11.3077 -11.3039 -11.3000
-11.2987 -11.2892 -11.2857 -11.2851 -11.2842 -11.2825 -11.2814 -11.2731
-11.2730 -11.2585 -11.2584 -11.2498 -11.2373  -9.0115  -8.9998  -8.9824
 -8.9609  -6.6922  -6.6916  -6.6911  -6.6808  -6.6801  -6.6790  -6.6635
 -6.6626  -6.6614  -6.6421  -6.6412  -6.6402  -1.6611  -1.4678  -1.4111
 -1.4089  -1.3705  -1.2305  -1.2030  -1.1739  -1.1374  -1.1010  -1.0469
 -1.0460  -1.0237  -1.0038  -0.9981  -0.9626  -0.9594  -0.9489  -0.9413
 -0.8942  -0.8711  -0.8645  -0.8102  -0.8000  -0.7902  -0.7843  -0.7679
 -0.7581  -0.7365  -0.7259  -0.7099  -0.6999  -0.6950  -0.6852  -0.6807
 -0.6744  -0.6644  -0.6563  -0.6488  -0.6373  -0.6307  -0.6202  -0.6150
 -0.6122  -0.5991  -0.5932  -0.5777  -0.5714  -0.5657  -0.5589  -0.5547
 -0.5450  -0.5331  -0.5312  -0.5270  -0.5129  -0.5089  -0.5078  -0.5021
 -0.4851  -0.4819  -0.4767  -0.4743  -0.4695  -0.4673  -0.4615  -0.4470
 -0.4290  -0.3968  -0.3854  -0.3704  -0.3508  -0.3004  -0.2892  -0.2188

          Ground-State Mulliken Net Atomic Charges

     Atom                 Charge (a.u.)
  ----------------------------------------
      1 C                    -0.070304
      2 C                    -0.259482
      3 S                    -0.135086
      4 C                    -0.047451
      5 H                     0.193459
      6 C                    -0.052828
      7 C                     0.220687
      8 C                     0.232329
      9 C                    -0.076814
     10 C                    -0.033951
     11 O                    -0.334636
     12 O                    -0.342757
     13 C                    -0.082915
     14 H                     0.120547
     15 H                     0.092206
     16 H                     0.092652
     17 C                    -0.087198
     18 H                     0.124078
     19 H                     0.092905
     20 H                     0.089896
     21 C                    -0.311966
     22 S                    -0.083161
     23 C                     0.104865
     24 H                     0.210148
     25 C                    -0.046341
     26 S                     0.094822
     27 C                    -0.198452
     28 C                    -0.043902
     29 C                    -0.091901
     30 S                     0.009112
     31 C                    -0.156147
     32 C                     0.398602
     33 F                    -0.206428
     34 C                     0.444508
     35 O                    -0.460669
     36 O                    -0.300754
     37 C                    -0.058388
     38 H                     0.121542
     39 H                     0.095253
     40 H                     0.095177
     41 H                     0.216220
     42 H                     0.117478
     43 H                     0.115140
     44 H                     0.199903
  ----------------------------------------
  Sum of atomic charges =     0.000000

                    Cartesian Multipole Moments
 -----------------------------------------------------------------
    Charge (ESU x 10^10)
                -0.0000
    Dipole Moment (Debye)
         X       0.3564      Y       2.4341      Z       2.6384
       Tot       3.6074
    Quadrupole Moments (Debye-Ang)
        XX    -186.3412     XY       7.6929     YY    -175.7495
        XZ     -10.9158     YZ     -10.3105     ZZ    -201.3754

 Total job time:  349.05s(wall), 10784.25s(cpu)
        *  Thank you very much for using Q-Chem.  Have a nice day.  *
