 Q-Chem 5.4, Q-Chem, Inc., Pleasanton, CA (2021)
 Q-Chem 5.4.0 for Intel X86 EM64T Linux

User input:
--------------------------------------------------------------
$molecule
0 1
C	0.095966	-8.517702	-0.306235
C	-0.082807	-7.641575	0.754415
S	0.348635	-7.638634	-1.833702
C	-0.017401	-6.264785	0.383675
H	-0.259008	-7.966081	1.787757
C	0.231913	-6.072714	-1.020885
C	0.305044	-4.787049	-1.579097
C	-0.196549	-5.162801	1.268082
C	-0.127606	-3.874817	0.708796
C	0.124792	-3.683952	-0.696769
O	-0.397867	-5.499772	2.572378
O	0.506103	-4.459055	-2.889532
C	1.267335	-5.329063	-3.718420
H	1.502804	-4.755694	-4.635204
H	0.697471	-6.238095	-4.010790
H	2.215194	-5.637262	-3.226506
C	-0.999238	-4.572261	3.467415
H	-1.230649	-5.139743	4.388648
H	-1.940905	-4.153131	3.052323
H	-0.311543	-3.739531	3.730819
C	0.187323	-2.306654	-1.064366
S	-0.257128	-2.306501	1.521154
C	-0.000000	-1.435185	-0.000000
H	0.365903	-1.978138	-2.095939
C	0.000000	0.000000	0.000000
S	0.382799	0.819795	1.507541
C	1.046687	2.245325	0.718873
C	0.382918	0.819389	-1.067872
C	0.968323	2.080267	-0.686410
S	0.282561	0.597432	-2.805516
C	1.017839	2.187324	-3.054530
C	1.314960	2.830306	-1.862551
F	1.875498	4.043751	-1.819088
C	1.208895	2.592573	-4.456084
O	0.890778	1.891482	-5.406510
O	1.772886	3.819715	-4.569225
C	1.986852	4.266207	-5.916207
H	2.445834	5.267032	-5.833064
H	1.028114	4.323448	-6.470168
H	2.661066	3.573494	-6.459293
H	1.436015	3.083584	1.306486
H	-0.791346	-9.143623	-0.457736
H	0.979708	-9.149441	-0.158056
H	-1.064830	-1.443175	-0.180205
$end

$rem
JOBTYPE		SP
EXCHANGE	HF
CORRELATION	pRIMP2
BASIS		cc-pvtz
METHOD		rimp2
AUX_BASIS	rimp2-cc-pvtz
SOLVENT_METHOD	PCM
PURECART	11111
SYMMETRY	false
MEM_TOTAL	110000
SCF_CONVERGENCE = 6
THRESH=10
GUI = 2
$end

$solvent
dielectric 4.90
$end
--------------------------------------------------------------

             Standard Nuclear Orientation (Angstroms)
    I     Atom           X                Y                Z
 ----------------------------------------------------------------
    1      C       0.0959660000    -8.5177020000    -0.3062350000
    2      C      -0.0828070000    -7.6415750000     0.7544150000
    3      S       0.3486350000    -7.6386340000    -1.8337020000
    4      C      -0.0174010000    -6.2647850000     0.3836750000
    5      H      -0.2590080000    -7.9660810000     1.7877570000
    6      C       0.2319130000    -6.0727140000    -1.0208850000
    7      C       0.3050440000    -4.7870490000    -1.5790970000
    8      C      -0.1965490000    -5.1628010000     1.2680820000
    9      C      -0.1276060000    -3.8748170000     0.7087960000
   10      C       0.1247920000    -3.6839520000    -0.6967690000
   11      O      -0.3978670000    -5.4997720000     2.5723780000
   12      O       0.5061030000    -4.4590550000    -2.8895320000
   13      C       1.2673350000    -5.3290630000    -3.7184200000
   14      H       1.5028040000    -4.7556940000    -4.6352040000
   15      H       0.6974710000    -6.2380950000    -4.0107900000
   16      H       2.2151940000    -5.6372620000    -3.2265060000
   17      C      -0.9992380000    -4.5722610000     3.4674150000
   18      H      -1.2306490000    -5.1397430000     4.3886480000
   19      H      -1.9409050000    -4.1531310000     3.0523230000
   20      H      -0.3115430000    -3.7395310000     3.7308190000
   21      C       0.1873230000    -2.3066540000    -1.0643660000
   22      S      -0.2571280000    -2.3065010000     1.5211540000
   23      C       0.0000000000    -1.4351850000     0.0000000000
   24      H       0.3659030000    -1.9781380000    -2.0959390000
   25      C       0.0000000000     0.0000000000     0.0000000000
   26      S       0.3827990000     0.8197950000     1.5075410000
   27      C       1.0466870000     2.2453250000     0.7188730000
   28      C       0.3829180000     0.8193890000    -1.0678720000
   29      C       0.9683230000     2.0802670000    -0.6864100000
   30      S       0.2825610000     0.5974320000    -2.8055160000
   31      C       1.0178390000     2.1873240000    -3.0545300000
   32      C       1.3149600000     2.8303060000    -1.8625510000
   33      F       1.8754980000     4.0437510000    -1.8190880000
   34      C       1.2088950000     2.5925730000    -4.4560840000
   35      O       0.8907780000     1.8914820000    -5.4065100000
   36      O       1.7728860000     3.8197150000    -4.5692250000
   37      C       1.9868520000     4.2662070000    -5.9162070000
   38      H       2.4458340000     5.2670320000    -5.8330640000
   39      H       1.0281140000     4.3234480000    -6.4701680000
   40      H       2.6610660000     3.5734940000    -6.4592930000
   41      H       1.4360150000     3.0835840000     1.3064860000
   42      H      -0.7913460000    -9.1436230000    -0.4577360000
   43      H       0.9797080000    -9.1494410000    -0.1580560000
   44      H      -1.0648300000    -1.4431750000    -0.1802050000
 ----------------------------------------------------------------

   11   -2755.3269554350      8.54e-07  Convergence criterion met
 Total energy in the final basis set =    -2755.3269554350
        RIMP2         total energy =     -2760.4223017773 a.u.

                    Orbital Energies (a.u.)
 --------------------------------------------------------------

 Alpha MOs
 -- Occupied --
-92.0139 -91.9987 -91.9823 -91.9584 -26.3434 -20.6152 -20.5886 -20.5872
-20.5617 -11.4098 -11.3826 -11.3099 -11.3097 -11.3053 -11.3049 -11.2983
-11.2963 -11.2890 -11.2857 -11.2853 -11.2852 -11.2824 -11.2816 -11.2740
-11.2731 -11.2590 -11.2590 -11.2501 -11.2380  -9.0128  -8.9989  -8.9844
 -8.9610  -6.6936  -6.6929  -6.6924  -6.6799  -6.6792  -6.6781  -6.6656
 -6.6647  -6.6634  -6.6423  -6.6413  -6.6403  -1.6605  -1.4676  -1.4119
 -1.4091  -1.3703  -1.2310  -1.2031  -1.1745  -1.1378  -1.1009  -1.0477
 -1.0456  -1.0241  -1.0042  -0.9987  -0.9632  -0.9595  -0.9492  -0.9410
 -0.8952  -0.8707  -0.8646  -0.8097  -0.8015  -0.7905  -0.7840  -0.7681
 -0.7572  -0.7376  -0.7253  -0.7116  -0.6992  -0.6928  -0.6850  -0.6814
 -0.6742  -0.6633  -0.6571  -0.6491  -0.6392  -0.6314  -0.6204  -0.6152
 -0.6121  -0.5989  -0.5936  -0.5776  -0.5711  -0.5656  -0.5597  -0.5554
 -0.5442  -0.5355  -0.5309  -0.5285  -0.5137  -0.5097  -0.5084  -0.5013
 -0.4852  -0.4823  -0.4773  -0.4739  -0.4703  -0.4657  -0.4605  -0.4474
 -0.4331  -0.3942  -0.3866  -0.3712  -0.3502  -0.2995  -0.2888  -0.2168

          Ground-State Mulliken Net Atomic Charges

     Atom                 Charge (a.u.)
  ----------------------------------------
      1 C                    -0.070357
      2 C                    -0.258145
      3 S                    -0.134938
      4 C                    -0.048727
      5 H                     0.193682
      6 C                    -0.051137
      7 C                     0.225654
      8 C                     0.232136
      9 C                    -0.073673
     10 C                    -0.040431
     11 O                    -0.333867
     12 O                    -0.344075
     13 C                    -0.083299
     14 H                     0.121257
     15 H                     0.092545
     16 H                     0.092814
     17 C                    -0.088724
     18 H                     0.124967
     19 H                     0.093095
     20 H                     0.089970
     21 C                    -0.300870
     22 S                    -0.099162
     23 C                     0.113642
     24 H                     0.197915
     25 C                    -0.026187
     26 S                     0.089878
     27 C                    -0.217102
     28 C                    -0.037726
     29 C                    -0.093367
     30 S                     0.004792
     31 C                    -0.164782
     32 C                     0.409189
     33 F                    -0.206538
     34 C                     0.444256
     35 O                    -0.460844
     36 O                    -0.300791
     37 C                    -0.058522
     38 H                     0.121577
     39 H                     0.095193
     40 H                     0.095167
     41 H                     0.217184
     42 H                     0.117722
     43 H                     0.115420
     44 H                     0.205210
  ----------------------------------------
  Sum of atomic charges =     0.000000

                    Cartesian Multipole Moments
 -----------------------------------------------------------------
    Charge (ESU x 10^10)
                -0.0000
    Dipole Moment (Debye)
         X       0.4103      Y       2.0067      Z       3.0779
       Tot       3.6971
    Quadrupole Moments (Debye-Ang)
        XX    -194.7563     XY       6.7329     YY    -175.7215
        XZ     -11.1547     YZ     -11.0980     ZZ    -191.9249

 Total job time:  330.47s(wall), 10766.23s(cpu)
        *  Thank you very much for using Q-Chem.  Have a nice day.  *
