 Q-Chem 5.4, Q-Chem, Inc., Pleasanton, CA (2021)
 Q-Chem 5.4.0 for Intel X86 EM64T Linux

User input:
--------------------------------------------------------------
$molecule
0 1
C	0.320589	-8.517702	-0.014560
C	-0.737240	-7.641575	0.180211
S	1.842356	-7.638634	-0.299553
C	-0.366488	-6.264785	0.114873
H	-1.768528	-7.966081	0.368061
C	1.038637	-6.072714	-0.131236
C	1.588197	-4.787049	-0.253435
C	-1.258831	-5.162801	0.249014
C	-0.709695	-3.874817	0.122513
C	0.697430	-3.683952	-0.121043
O	-2.553323	-5.499772	0.505933
O	2.888369	-4.459055	-0.512697
C	3.927625	-5.329063	-0.080869
H	4.869656	-4.755694	-0.173159
H	4.007459	-6.238095	-0.716363
H	3.789565	-5.637262	0.978072
C	-3.600064	-4.572261	0.246949
H	-4.544887	-5.139743	0.344574
H	-3.532074	-4.153131	-0.779898
H	-3.612378	-3.739531	0.983261
C	1.064246	-2.306654	-0.188009
S	-1.517360	-2.306501	0.278644
C	0.000000	-1.435185	0.000000
H	2.094685	-1.978138	-0.373017
C	0.000000	0.000000	0.000000
S	0.693394	0.581209	1.507541
C	1.897536	1.592607	0.718873
C	0.693330	0.580791	-1.067872
C	1.756758	1.476132	-0.686410
S	0.508573	0.422041	-2.805516
C	1.846879	1.552232	-3.054530
C	2.387897	2.009402	-1.862551
F	3.408741	2.872264	-1.819088
C	2.191300	1.838768	-4.456084
O	1.606694	1.337806	-5.406510
O	3.221062	2.712584	-4.569225
C	3.603677	3.026817	-5.916207
H	4.442623	3.739898	-5.833064
H	2.758956	3.483875	-6.470168
H	3.921969	2.114070	-6.459293
H	2.604650	2.187790	1.306486
H	0.159475	-9.143623	-0.900177
H	0.483604	-9.149441	0.866566
H	-0.194856	-1.443175	-1.062246
$end

$rem
JOBTYPE		SP
EXCHANGE	HF
CORRELATION	pRIMP2
BASIS		cc-pvtz
METHOD		rimp2
AUX_BASIS	rimp2-cc-pvtz
SOLVENT_METHOD	PCM
PURECART	11111
SYMMETRY	false
MEM_TOTAL	110000
SCF_CONVERGENCE = 6
THRESH=10
GUI = 2
$end

$solvent
dielectric 4.90
$end
--------------------------------------------------------------

             Standard Nuclear Orientation (Angstroms)
    I     Atom           X                Y                Z
 ----------------------------------------------------------------
    1      C       0.3205890000    -8.5177020000    -0.0145600000
    2      C      -0.7372400000    -7.6415750000     0.1802110000
    3      S       1.8423560000    -7.6386340000    -0.2995530000
    4      C      -0.3664880000    -6.2647850000     0.1148730000
    5      H      -1.7685280000    -7.9660810000     0.3680610000
    6      C       1.0386370000    -6.0727140000    -0.1312360000
    7      C       1.5881970000    -4.7870490000    -0.2534350000
    8      C      -1.2588310000    -5.1628010000     0.2490140000
    9      C      -0.7096950000    -3.8748170000     0.1225130000
   10      C       0.6974300000    -3.6839520000    -0.1210430000
   11      O      -2.5533230000    -5.4997720000     0.5059330000
   12      O       2.8883690000    -4.4590550000    -0.5126970000
   13      C       3.9276250000    -5.3290630000    -0.0808690000
   14      H       4.8696560000    -4.7556940000    -0.1731590000
   15      H       4.0074590000    -6.2380950000    -0.7163630000
   16      H       3.7895650000    -5.6372620000     0.9780720000
   17      C      -3.6000640000    -4.5722610000     0.2469490000
   18      H      -4.5448870000    -5.1397430000     0.3445740000
   19      H      -3.5320740000    -4.1531310000    -0.7798980000
   20      H      -3.6123780000    -3.7395310000     0.9832610000
   21      C       1.0642460000    -2.3066540000    -0.1880090000
   22      S      -1.5173600000    -2.3065010000     0.2786440000
   23      C       0.0000000000    -1.4351850000     0.0000000000
   24      H       2.0946850000    -1.9781380000    -0.3730170000
   25      C       0.0000000000     0.0000000000     0.0000000000
   26      S       0.6933940000     0.5812090000     1.5075410000
   27      C       1.8975360000     1.5926070000     0.7188730000
   28      C       0.6933300000     0.5807910000    -1.0678720000
   29      C       1.7567580000     1.4761320000    -0.6864100000
   30      S       0.5085730000     0.4220410000    -2.8055160000
   31      C       1.8468790000     1.5522320000    -3.0545300000
   32      C       2.3878970000     2.0094020000    -1.8625510000
   33      F       3.4087410000     2.8722640000    -1.8190880000
   34      C       2.1913000000     1.8387680000    -4.4560840000
   35      O       1.6066940000     1.3378060000    -5.4065100000
   36      O       3.2210620000     2.7125840000    -4.5692250000
   37      C       3.6036770000     3.0268170000    -5.9162070000
   38      H       4.4426230000     3.7398980000    -5.8330640000
   39      H       2.7589560000     3.4838750000    -6.4701680000
   40      H       3.9219690000     2.1140700000    -6.4592930000
   41      H       2.6046500000     2.1877900000     1.3064860000
   42      H       0.1594750000    -9.1436230000    -0.9001770000
   43      H       0.4836040000    -9.1494410000     0.8665660000
   44      H      -0.1948560000    -1.4431750000    -1.0622460000
 ----------------------------------------------------------------

   11   -2755.3042365005      6.72e-07  Convergence criterion met
 Total energy in the final basis set =    -2755.3042365005
        RIMP2         total energy =     -2760.4017535711 a.u.

                    Orbital Energies (a.u.)
 --------------------------------------------------------------

 Alpha MOs
 -- Occupied --
-92.0096 -92.0091 -91.9691 -91.9569 -26.3472 -20.6163 -20.5865 -20.5843
-20.5629 -11.4115 -11.3881 -11.3297 -11.3177 -11.3078 -11.3030 -11.3003
-11.2899 -11.2887 -11.2825 -11.2824 -11.2794 -11.2790 -11.2740 -11.2712
-11.2691 -11.2563 -11.2552 -11.2483 -11.2338  -9.0093  -9.0089  -8.9715
 -8.9595  -6.6900  -6.6899  -6.6891  -6.6891  -6.6888  -6.6881  -6.6526
 -6.6517  -6.6505  -6.6408  -6.6399  -6.6388  -1.6642  -1.4689  -1.4087
 -1.4073  -1.3717  -1.2382  -1.1998  -1.1719  -1.1404  -1.0996  -1.0502
 -1.0434  -1.0266  -1.0007  -0.9946  -0.9648  -0.9582  -0.9483  -0.9417
 -0.8909  -0.8731  -0.8606  -0.8161  -0.7974  -0.7901  -0.7820  -0.7664
 -0.7602  -0.7340  -0.7288  -0.7132  -0.7012  -0.6933  -0.6864  -0.6790
 -0.6754  -0.6665  -0.6543  -0.6473  -0.6366  -0.6289  -0.6187  -0.6145
 -0.6104  -0.6016  -0.5929  -0.5740  -0.5735  -0.5653  -0.5557  -0.5555
 -0.5464  -0.5323  -0.5260  -0.5210  -0.5128  -0.5100  -0.5057  -0.4997
 -0.4859  -0.4826  -0.4765  -0.4745  -0.4674  -0.4667  -0.4569  -0.4440
 -0.4168  -0.3994  -0.3817  -0.3683  -0.3520  -0.3112  -0.2867  -0.2181

          Ground-State Mulliken Net Atomic Charges

     Atom                 Charge (a.u.)
  ----------------------------------------
      1 C                    -0.069749
      2 C                    -0.268196
      3 S                    -0.138102
      4 C                    -0.041480
      5 H                     0.192409
      6 C                    -0.051618
      7 C                     0.222410
      8 C                     0.220939
      9 C                    -0.075154
     10 C                    -0.049548
     11 O                    -0.336260
     12 O                    -0.343984
     13 C                    -0.082719
     14 H                     0.119284
     15 H                     0.092242
     16 H                     0.092537
     17 C                    -0.086303
     18 H                     0.122335
     19 H                     0.091472
     20 H                     0.090298
     21 C                    -0.257977
     22 S                    -0.100221
     23 C                     0.060497
     24 H                     0.206802
     25 C                    -0.136038
     26 S                     0.094054
     27 C                    -0.136066
     28 C                     0.005855
     29 C                    -0.093594
     30 S                     0.041966
     31 C                    -0.154659
     32 C                     0.399954
     33 F                    -0.203644
     34 C                     0.447998
     35 O                    -0.461316
     36 O                    -0.301243
     37 C                    -0.058155
     38 H                     0.121676
     39 H                     0.095419
     40 H                     0.095538
     41 H                     0.219792
     42 H                     0.116352
     43 H                     0.113839
     44 H                     0.182360
  ----------------------------------------
  Sum of atomic charges =     0.000000

                    Cartesian Multipole Moments
 -----------------------------------------------------------------
    Charge (ESU x 10^10)
                 0.0000
    Dipole Moment (Debye)
         X       2.9589      Y       3.4361      Z       1.9767
       Tot       4.9466
    Quadrupole Moments (Debye-Ang)
        XX    -174.0070     XY      11.9923     YY    -188.2764
        XZ      -2.8058     YZ      -5.5832     ZZ    -204.3423

 Total job time:  328.32s(wall), 10657.70s(cpu)
        *  Thank you very much for using Q-Chem.  Have a nice day.  *
