 Q-Chem 5.4, Q-Chem, Inc., Pleasanton, CA (2021)
 Q-Chem 5.4.0 for Intel X86 EM64T Linux

User input:
--------------------------------------------------------------
$molecule
0 1
C	0.147685	-8.517702	-0.284919
C	-0.212552	-7.641575	0.728574
S	0.661757	-7.638634	-1.745304
C	-0.083761	-6.264785	0.374824
H	-0.565513	-7.966081	1.715621
C	0.405665	-6.072714	-0.965104
C	0.574617	-4.787049	-1.502136
C	-0.413763	-5.162801	1.214687
C	-0.248748	-3.874817	0.675870
C	0.243888	-3.683952	-0.664513
O	-0.838511	-5.499772	2.464209
O	1.000176	-4.459055	-2.757750
C	1.893778	-5.329063	-3.441858
H	2.284868	-4.755694	-4.303826
H	1.383341	-6.238095	-3.828743
H	2.741817	-5.637262	-2.792824
C	-1.586168	-4.572261	3.241222
H	-1.974033	-5.139743	4.108274
H	-2.441448	-4.153131	2.668916
H	-0.954660	-3.739531	3.620041
C	0.369302	-2.306654	-1.015668
S	-0.517367	-2.306501	1.453394
C	-0.000000	-1.435185	-0.000000
H	0.724300	-1.978138	-2.000559
C	0.000000	0.000000	0.000000
S	0.309893	0.850039	1.507541
C	0.847011	2.328006	0.718873
C	0.310046	0.849645	-1.067872
C	0.783331	2.156746	-0.686410
S	0.229416	0.619785	-2.805516
C	0.823328	2.267711	-3.054530
C	1.063278	2.934142	-1.862551
F	1.515925	4.191824	-1.819088
C	0.978337	2.688069	-4.456084
O	0.722535	1.961921	-5.406510
O	1.433229	3.959697	-4.569225
C	1.607467	4.423139	-5.916207
H	1.977475	5.460158	-5.833064
H	0.647388	4.396602	-6.470168
H	2.339490	3.791823	-6.459293
H	1.161798	3.197007	1.306486
H	-0.699838	-9.143623	-0.588198
H	0.992270	-9.149441	0.014470
H	-1.017360	-1.443175	-0.362373
$end

$rem
JOBTYPE		SP
EXCHANGE	HF
CORRELATION	pRIMP2
BASIS		cc-pvtz
METHOD		rimp2
AUX_BASIS	rimp2-cc-pvtz
SOLVENT_METHOD	PCM
PURECART	11111
SYMMETRY	false
MEM_TOTAL	110000
SCF_CONVERGENCE = 6
THRESH=10
GUI = 2
$end

$solvent
dielectric 4.90
$end
--------------------------------------------------------------

             Standard Nuclear Orientation (Angstroms)
    I     Atom           X                Y                Z
 ----------------------------------------------------------------
    1      C       0.1476850000    -8.5177020000    -0.2849190000
    2      C      -0.2125520000    -7.6415750000     0.7285740000
    3      S       0.6617570000    -7.6386340000    -1.7453040000
    4      C      -0.0837610000    -6.2647850000     0.3748240000
    5      H      -0.5655130000    -7.9660810000     1.7156210000
    6      C       0.4056650000    -6.0727140000    -0.9651040000
    7      C       0.5746170000    -4.7870490000    -1.5021360000
    8      C      -0.4137630000    -5.1628010000     1.2146870000
    9      C      -0.2487480000    -3.8748170000     0.6758700000
   10      C       0.2438880000    -3.6839520000    -0.6645130000
   11      O      -0.8385110000    -5.4997720000     2.4642090000
   12      O       1.0001760000    -4.4590550000    -2.7577500000
   13      C       1.8937780000    -5.3290630000    -3.4418580000
   14      H       2.2848680000    -4.7556940000    -4.3038260000
   15      H       1.3833410000    -6.2380950000    -3.8287430000
   16      H       2.7418170000    -5.6372620000    -2.7928240000
   17      C      -1.5861680000    -4.5722610000     3.2412220000
   18      H      -1.9740330000    -5.1397430000     4.1082740000
   19      H      -2.4414480000    -4.1531310000     2.6689160000
   20      H      -0.9546600000    -3.7395310000     3.6200410000
   21      C       0.3693020000    -2.3066540000    -1.0156680000
   22      S      -0.5173670000    -2.3065010000     1.4533940000
   23      C       0.0000000000    -1.4351850000     0.0000000000
   24      H       0.7243000000    -1.9781380000    -2.0005590000
   25      C       0.0000000000     0.0000000000     0.0000000000
   26      S       0.3098930000     0.8500390000     1.5075410000
   27      C       0.8470110000     2.3280060000     0.7188730000
   28      C       0.3100460000     0.8496450000    -1.0678720000
   29      C       0.7833310000     2.1567460000    -0.6864100000
   30      S       0.2294160000     0.6197850000    -2.8055160000
   31      C       0.8233280000     2.2677110000    -3.0545300000
   32      C       1.0632780000     2.9341420000    -1.8625510000
   33      F       1.5159250000     4.1918240000    -1.8190880000
   34      C       0.9783370000     2.6880690000    -4.4560840000
   35      O       0.7225350000     1.9619210000    -5.4065100000
   36      O       1.4332290000     3.9596970000    -4.5692250000
   37      C       1.6074670000     4.4231390000    -5.9162070000
   38      H       1.9774750000     5.4601580000    -5.8330640000
   39      H       0.6473880000     4.3966020000    -6.4701680000
   40      H       2.3394900000     3.7918230000    -6.4592930000
   41      H       1.1617980000     3.1970070000     1.3064860000
   42      H      -0.6998380000    -9.1436230000    -0.5881980000
   43      H       0.9922700000    -9.1494410000     0.0144700000
   44      H      -1.0173600000    -1.4431750000    -0.3623730000
 ----------------------------------------------------------------

   11   -2755.3338441265      8.31e-07  Convergence criterion met
 Total energy in the final basis set =    -2755.3338441265
        RIMP2         total energy =     -2760.4272275249 a.u.

                    Orbital Energies (a.u.)
 --------------------------------------------------------------

 Alpha MOs
 -- Occupied --
-92.0138 -91.9983 -91.9821 -91.9587 -26.3434 -20.6152 -20.5887 -20.5873
-20.5617 -11.4098 -11.3825 -11.3101 -11.3098 -11.3070 -11.3038 -11.2984
-11.2959 -11.2890 -11.2857 -11.2853 -11.2852 -11.2825 -11.2824 -11.2737
-11.2736 -11.2596 -11.2592 -11.2504 -11.2386  -9.0126  -8.9985  -8.9842
 -8.9613  -6.6934  -6.6927  -6.6922  -6.6796  -6.6788  -6.6777  -6.6654
 -6.6645  -6.6632  -6.6426  -6.6416  -6.6406  -1.6604  -1.4676  -1.4119
 -1.4092  -1.3703  -1.2306  -1.2032  -1.1747  -1.1375  -1.1012  -1.0478
 -1.0456  -1.0237  -1.0043  -0.9989  -0.9630  -0.9595  -0.9493  -0.9411
 -0.8952  -0.8709  -0.8647  -0.8094  -0.8014  -0.7904  -0.7843  -0.7684
 -0.7574  -0.7375  -0.7253  -0.7107  -0.6994  -0.6939  -0.6850  -0.6814
 -0.6742  -0.6638  -0.6570  -0.6491  -0.6388  -0.6313  -0.6207  -0.6153
 -0.6123  -0.5987  -0.5936  -0.5776  -0.5714  -0.5655  -0.5598  -0.5549
 -0.5451  -0.5352  -0.5311  -0.5281  -0.5135  -0.5095  -0.5084  -0.5019
 -0.4852  -0.4822  -0.4771  -0.4739  -0.4701  -0.4661  -0.4616  -0.4477
 -0.4324  -0.3949  -0.3865  -0.3712  -0.3504  -0.2993  -0.2890  -0.2178

          Ground-State Mulliken Net Atomic Charges

     Atom                 Charge (a.u.)
  ----------------------------------------
      1 C                    -0.070496
      2 C                    -0.256425
      3 S                    -0.134059
      4 C                    -0.049413
      5 H                     0.193841
      6 C                    -0.050832
      7 C                     0.222401
      8 C                     0.233653
      9 C                    -0.074217
     10 C                    -0.033647
     11 O                    -0.334020
     12 O                    -0.343318
     13 C                    -0.083214
     14 H                     0.121071
     15 H                     0.092380
     16 H                     0.092822
     17 C                    -0.088284
     18 H                     0.124821
     19 H                     0.093187
     20 H                     0.090094
     21 C                    -0.324079
     22 S                    -0.095403
     23 C                     0.129916
     24 H                     0.200935
     25 C                    -0.031240
     26 S                     0.092159
     27 C                    -0.218041
     28 C                    -0.040291
     29 C                    -0.091841
     30 S                     0.003317
     31 C                    -0.162347
     32 C                     0.406332
     33 F                    -0.206824
     34 C                     0.443072
     35 O                    -0.460669
     36 O                    -0.300680
     37 C                    -0.058461
     38 H                     0.121547
     39 H                     0.095196
     40 H                     0.095160
     41 H                     0.216346
     42 H                     0.117946
     43 H                     0.115591
     44 H                     0.206014
  ----------------------------------------
  Sum of atomic charges =     0.000000

                    Cartesian Multipole Moments
 -----------------------------------------------------------------
    Charge (ESU x 10^10)
                -0.0000
    Dipole Moment (Debye)
         X       0.1702      Y       1.9307      Z       2.9662
       Tot       3.5433
    Quadrupole Moments (Debye-Ang)
        XX    -192.7150     XY       6.4599     YY    -173.9539
        XZ     -11.8215     YZ     -11.1892     ZZ    -195.0308

 Total job time:  351.22s(wall), 10662.33s(cpu)
        *  Thank you very much for using Q-Chem.  Have a nice day.  *
