 Q-Chem 5.4, Q-Chem, Inc., Pleasanton, CA (2021)
 Q-Chem 5.4.0 for Intel X86 EM64T Linux

User input:
--------------------------------------------------------------
$molecule
0 1
C	0.041330	-8.517702	-0.318247
C	0.049453	-7.641575	0.757333
S	0.024919	-7.638634	-1.866383
C	0.049488	-6.264785	0.380867
H	0.055368	-7.966081	1.805573
C	0.051115	-6.072714	-1.045647
C	0.026203	-4.787049	-1.608077
C	0.026637	-5.162801	1.282948
C	-0.002586	-3.874817	0.720187
C	0.001903	-3.683952	-0.707853
O	0.054867	-5.499772	2.602386
O	-0.003348	-4.459055	-2.933517
C	0.602384	-5.329063	-3.881999
H	0.675079	-4.755694	-4.825744
H	-0.009592	-6.238095	-4.070972
H	1.621263	-5.637262	-3.562152
C	-0.381947	-4.572261	3.588253
H	-0.449872	-5.139743	4.535674
H	-1.381388	-4.153131	3.342986
H	0.341040	-3.739531	3.728239
C	-0.000348	-2.306654	-1.080725
S	0.010924	-2.306501	1.542694
C	-0.000000	-1.435185	-0.000000
H	-0.003612	-1.978138	-2.127635
C	0.000000	0.000000	0.000000
S	0.157577	0.890937	1.507541
C	0.429889	2.439720	0.718873
C	0.157797	0.890576	-1.067872
C	0.396915	2.260004	-0.686410
S	0.118307	0.650207	-2.805516
C	0.417036	2.376229	-3.054530
C	0.537616	3.074202	-1.862551
F	0.764992	4.391378	-1.819088
C	0.496696	2.817118	-4.456084
O	0.370874	2.057582	-5.406510
O	0.723861	4.148418	-4.569225
C	0.814976	4.635075	-5.916207
H	0.999286	5.720591	-5.833064
H	-0.125909	4.442226	-6.470168
H	1.645504	4.140465	-6.459293
H	0.588993	3.350182	1.306486
H	-0.858809	-9.143623	-0.313367
H	0.937378	-9.149441	-0.325780
H	-1.079945	-1.443175	0.007439
$end

$rem
JOBTYPE		SP
EXCHANGE	HF
CORRELATION	pRIMP2
BASIS		cc-pvtz
METHOD		rimp2
AUX_BASIS	rimp2-cc-pvtz
SOLVENT_METHOD	PCM
PURECART	11111
SYMMETRY	false
MEM_TOTAL	110000
SCF_CONVERGENCE = 6
THRESH=10
GUI = 2
$end

$solvent
dielectric 4.90
$end
--------------------------------------------------------------

             Standard Nuclear Orientation (Angstroms)
    I     Atom           X                Y                Z
 ----------------------------------------------------------------
    1      C       0.0413300000    -8.5177020000    -0.3182470000
    2      C       0.0494530000    -7.6415750000     0.7573330000
    3      S       0.0249190000    -7.6386340000    -1.8663830000
    4      C       0.0494880000    -6.2647850000     0.3808670000
    5      H       0.0553680000    -7.9660810000     1.8055730000
    6      C       0.0511150000    -6.0727140000    -1.0456470000
    7      C       0.0262030000    -4.7870490000    -1.6080770000
    8      C       0.0266370000    -5.1628010000     1.2829480000
    9      C      -0.0025860000    -3.8748170000     0.7201870000
   10      C       0.0019030000    -3.6839520000    -0.7078530000
   11      O       0.0548670000    -5.4997720000     2.6023860000
   12      O      -0.0033480000    -4.4590550000    -2.9335170000
   13      C       0.6023840000    -5.3290630000    -3.8819990000
   14      H       0.6750790000    -4.7556940000    -4.8257440000
   15      H      -0.0095920000    -6.2380950000    -4.0709720000
   16      H       1.6212630000    -5.6372620000    -3.5621520000
   17      C      -0.3819470000    -4.5722610000     3.5882530000
   18      H      -0.4498720000    -5.1397430000     4.5356740000
   19      H      -1.3813880000    -4.1531310000     3.3429860000
   20      H       0.3410400000    -3.7395310000     3.7282390000
   21      C      -0.0003480000    -2.3066540000    -1.0807250000
   22      S       0.0109240000    -2.3065010000     1.5426940000
   23      C       0.0000000000    -1.4351850000     0.0000000000
   24      H      -0.0036120000    -1.9781380000    -2.1276350000
   25      C       0.0000000000     0.0000000000     0.0000000000
   26      S       0.1575770000     0.8909370000     1.5075410000
   27      C       0.4298890000     2.4397200000     0.7188730000
   28      C       0.1577970000     0.8905760000    -1.0678720000
   29      C       0.3969150000     2.2600040000    -0.6864100000
   30      S       0.1183070000     0.6502070000    -2.8055160000
   31      C       0.4170360000     2.3762290000    -3.0545300000
   32      C       0.5376160000     3.0742020000    -1.8625510000
   33      F       0.7649920000     4.3913780000    -1.8190880000
   34      C       0.4966960000     2.8171180000    -4.4560840000
   35      O       0.3708740000     2.0575820000    -5.4065100000
   36      O       0.7238610000     4.1484180000    -4.5692250000
   37      C       0.8149760000     4.6350750000    -5.9162070000
   38      H       0.9992860000     5.7205910000    -5.8330640000
   39      H      -0.1259090000     4.4422260000    -6.4701680000
   40      H       1.6455040000     4.1404650000    -6.4592930000
   41      H       0.5889930000     3.3501820000     1.3064860000
   42      H      -0.8588090000    -9.1436230000    -0.3133670000
   43      H       0.9373780000    -9.1494410000    -0.3257800000
   44      H      -1.0799450000    -1.4431750000     0.0074390000
 ----------------------------------------------------------------

   11   -2755.3397173720      8.83e-07  Convergence criterion met
 Total energy in the final basis set =    -2755.3397173720
        RIMP2         total energy =     -2760.4310106142 a.u.

                    Orbital Energies (a.u.)
 --------------------------------------------------------------

 Alpha MOs
 -- Occupied --
-92.0149 -91.9962 -91.9831 -91.9595 -26.3426 -20.6149 -20.5895 -20.5875
-20.5615 -11.4095 -11.3814 -11.3116 -11.3112 -11.3101 -11.2999 -11.2981
-11.2915 -11.2889 -11.2863 -11.2860 -11.2846 -11.2845 -11.2826 -11.2746
-11.2743 -11.2612 -11.2599 -11.2512 -11.2404  -9.0136  -8.9965  -8.9853
 -8.9620  -6.6945  -6.6939  -6.6933  -6.6775  -6.6768  -6.6756  -6.6665
 -6.6656  -6.6643  -6.6433  -6.6423  -6.6413  -1.6597  -1.4674  -1.4128
 -1.4094  -1.3701  -1.2301  -1.2034  -1.1756  -1.1374  -1.1017  -1.0485
 -1.0450  -1.0234  -1.0049  -0.9996  -0.9632  -0.9594  -0.9499  -0.9408
 -0.8960  -0.8707  -0.8651  -0.8090  -0.8023  -0.7903  -0.7846  -0.7691
 -0.7567  -0.7383  -0.7246  -0.7120  -0.6996  -0.6919  -0.6847  -0.6814
 -0.6739  -0.6637  -0.6576  -0.6495  -0.6396  -0.6320  -0.6214  -0.6158
 -0.6121  -0.5983  -0.5937  -0.5770  -0.5718  -0.5654  -0.5604  -0.5534
 -0.5484  -0.5360  -0.5315  -0.5295  -0.5145  -0.5098  -0.5088  -0.5016
 -0.4853  -0.4822  -0.4772  -0.4736  -0.4708  -0.4666  -0.4612  -0.4482
 -0.4343  -0.3945  -0.3878  -0.3722  -0.3503  -0.2984  -0.2892  -0.2182

          Ground-State Mulliken Net Atomic Charges

     Atom                 Charge (a.u.)
  ----------------------------------------
      1 C                    -0.070541
      2 C                    -0.251400
      3 S                    -0.132681
      4 C                    -0.050342
      5 H                     0.194633
      6 C                    -0.049585
      7 C                     0.227292
      8 C                     0.234003
      9 C                    -0.074192
     10 C                    -0.039047
     11 O                    -0.333310
     12 O                    -0.344334
     13 C                    -0.083586
     14 H                     0.121575
     15 H                     0.092712
     16 H                     0.092993
     17 C                    -0.089123
     18 H                     0.125232
     19 H                     0.093344
     20 H                     0.090332
     21 C                    -0.310059
     22 S                    -0.097152
     23 C                     0.140950
     24 H                     0.196155
     25 C                    -0.056825
     26 S                     0.072882
     27 C                    -0.219965
     28 C                     0.024160
     29 C                    -0.123397
     30 S                    -0.014551
     31 C                    -0.165810
     32 C                     0.411793
     33 F                    -0.207604
     34 C                     0.443445
     35 O                    -0.460953
     36 O                    -0.300550
     37 C                    -0.058776
     38 H                     0.121547
     39 H                     0.095159
     40 H                     0.095188
     41 H                     0.217856
     42 H                     0.118564
     43 H                     0.116308
     44 H                     0.207661
  ----------------------------------------
  Sum of atomic charges =     0.000000

                    Cartesian Multipole Moments
 -----------------------------------------------------------------
    Charge (ESU x 10^10)
                 0.0000
    Dipole Moment (Debye)
         X      -0.2816      Y       1.4236      Z       3.3548
       Tot       3.6552
    Quadrupole Moments (Debye-Ang)
        XX    -199.5324     XY       2.6439     YY    -169.9056
        XZ      -7.0474     YZ     -11.9954     ZZ    -189.7439

 Total job time:  370.54s(wall), 11477.40s(cpu)
        *  Thank you very much for using Q-Chem.  Have a nice day.  *
