 Q-Chem 5.4, Q-Chem, Inc., Pleasanton, CA (2021)
 Q-Chem 5.4.0 for Intel X86 EM64T Linux

User input:
--------------------------------------------------------------
$molecule
0 1
C	-0.284919	-8.517702	-0.147685
C	0.728574	-7.641575	0.212552
S	-1.745304	-7.638634	-0.661757
C	0.374824	-6.264785	0.083761
H	1.715621	-7.966081	0.565513
C	-0.965104	-6.072714	-0.405665
C	-1.502136	-4.787049	-0.574617
C	1.214687	-5.162801	0.413763
C	0.675870	-3.874817	0.248748
C	-0.664513	-3.683952	-0.243888
O	2.464209	-5.499772	0.838511
O	-2.757750	-4.459055	-1.000176
C	-3.441858	-5.329063	-1.893778
H	-4.303826	-4.755694	-2.284868
H	-3.828743	-6.238095	-1.383341
H	-2.792824	-5.637262	-2.741817
C	3.241222	-4.572261	1.586168
H	4.108274	-5.139743	1.974033
H	2.668916	-4.153131	2.441448
H	3.620041	-3.739531	0.954660
C	-1.015668	-2.306654	-0.369302
S	1.453394	-2.306501	0.517367
C	0.000000	-1.435185	0.000000
H	-2.000559	-1.978138	-0.724300
C	0.000000	0.000000	0.000000
S	0.000474	0.904764	1.507541
C	-0.000295	2.477305	0.718873
C	0.000752	0.904447	-1.067872
C	-0.001560	2.294593	-0.686410
S	0.003602	0.660872	-2.805516
C	-0.001928	2.412546	-3.054530
C	-0.004381	3.120854	-1.862551
F	-0.009185	4.457503	-1.819088
C	-0.000038	2.860570	-4.456084
O	0.007944	2.090724	-5.406510
O	-0.007501	4.211092	-4.569225
C	-0.002278	4.706177	-5.916207
H	-0.009265	5.807207	-5.833064
H	-0.895381	4.352875	-6.470168
H	0.901521	4.363301	-6.459293
H	-0.001708	3.401562	1.306486
H	-0.588198	-9.143623	0.699838
H	0.014470	-9.149441	-0.992270
H	-0.362373	-1.443175	1.017360
$end

$rem
JOBTYPE		SP
EXCHANGE	HF
CORRELATION	pRIMP2
BASIS		cc-pvtz
METHOD		rimp2
AUX_BASIS	rimp2-cc-pvtz
SOLVENT_METHOD	PCM
PURECART	11111
SYMMETRY	false
MEM_TOTAL	110000
SCF_CONVERGENCE = 6
THRESH=10
GUI = 2
$end

$solvent
dielectric 4.90
$end
--------------------------------------------------------------

             Standard Nuclear Orientation (Angstroms)
    I     Atom           X                Y                Z
 ----------------------------------------------------------------
    1      C      -0.2849190000    -8.5177020000    -0.1476850000
    2      C       0.7285740000    -7.6415750000     0.2125520000
    3      S      -1.7453040000    -7.6386340000    -0.6617570000
    4      C       0.3748240000    -6.2647850000     0.0837610000
    5      H       1.7156210000    -7.9660810000     0.5655130000
    6      C      -0.9651040000    -6.0727140000    -0.4056650000
    7      C      -1.5021360000    -4.7870490000    -0.5746170000
    8      C       1.2146870000    -5.1628010000     0.4137630000
    9      C       0.6758700000    -3.8748170000     0.2487480000
   10      C      -0.6645130000    -3.6839520000    -0.2438880000
   11      O       2.4642090000    -5.4997720000     0.8385110000
   12      O      -2.7577500000    -4.4590550000    -1.0001760000
   13      C      -3.4418580000    -5.3290630000    -1.8937780000
   14      H      -4.3038260000    -4.7556940000    -2.2848680000
   15      H      -3.8287430000    -6.2380950000    -1.3833410000
   16      H      -2.7928240000    -5.6372620000    -2.7418170000
   17      C       3.2412220000    -4.5722610000     1.5861680000
   18      H       4.1082740000    -5.1397430000     1.9740330000
   19      H       2.6689160000    -4.1531310000     2.4414480000
   20      H       3.6200410000    -3.7395310000     0.9546600000
   21      C      -1.0156680000    -2.3066540000    -0.3693020000
   22      S       1.4533940000    -2.3065010000     0.5173670000
   23      C       0.0000000000    -1.4351850000     0.0000000000
   24      H      -2.0005590000    -1.9781380000    -0.7243000000
   25      C       0.0000000000     0.0000000000     0.0000000000
   26      S       0.0004740000     0.9047640000     1.5075410000
   27      C      -0.0002950000     2.4773050000     0.7188730000
   28      C       0.0007520000     0.9044470000    -1.0678720000
   29      C      -0.0015600000     2.2945930000    -0.6864100000
   30      S       0.0036020000     0.6608720000    -2.8055160000
   31      C      -0.0019280000     2.4125460000    -3.0545300000
   32      C      -0.0043810000     3.1208540000    -1.8625510000
   33      F      -0.0091850000     4.4575030000    -1.8190880000
   34      C      -0.0000380000     2.8605700000    -4.4560840000
   35      O       0.0079440000     2.0907240000    -5.4065100000
   36      O      -0.0075010000     4.2110920000    -4.5692250000
   37      C      -0.0022780000     4.7061770000    -5.9162070000
   38      H      -0.0092650000     5.8072070000    -5.8330640000
   39      H      -0.8953810000     4.3528750000    -6.4701680000
   40      H       0.9015210000     4.3633010000    -6.4592930000
   41      H      -0.0017080000     3.4015620000     1.3064860000
   42      H      -0.5881980000    -9.1436230000     0.6998380000
   43      H       0.0144700000    -9.1494410000    -0.9922700000
   44      H      -0.3623730000    -1.4431750000     1.0173600000
 ----------------------------------------------------------------

   11   -2755.3453566764      7.65e-07  Convergence criterion met
 Total energy in the final basis set =    -2755.3453566764
        RIMP2         total energy =     -2760.4321027150 a.u.

                    Orbital Energies (a.u.)
 --------------------------------------------------------------

 Alpha MOs
 -- Occupied --
-92.0174 -91.9979 -91.9766 -91.9579 -26.3435 -20.6150 -20.5869 -20.5866
-20.5615 -11.4096 -11.3825 -11.3111 -11.3088 -11.3066 -11.3008 -11.2984
-11.2981 -11.2890 -11.2851 -11.2843 -11.2828 -11.2825 -11.2794 -11.2726
-11.2723 -11.2579 -11.2573 -11.2494 -11.2361  -9.0160  -8.9980  -8.9789
 -8.9605  -6.6967  -6.6962  -6.6956  -6.6790  -6.6783  -6.6772  -6.6600
 -6.6591  -6.6578  -6.6417  -6.6408  -6.6398  -1.6606  -1.4675  -1.4100
 -1.4087  -1.3702  -1.2285  -1.2025  -1.1734  -1.1377  -1.0995  -1.0457
 -1.0443  -1.0245  -1.0034  -0.9968  -0.9627  -0.9588  -0.9481  -0.9405
 -0.8930  -0.8685  -0.8667  -0.8131  -0.7995  -0.7886  -0.7846  -0.7675
 -0.7567  -0.7377  -0.7255  -0.7169  -0.6974  -0.6860  -0.6846  -0.6795
 -0.6740  -0.6605  -0.6559  -0.6483  -0.6337  -0.6304  -0.6197  -0.6148
 -0.6113  -0.5991  -0.5916  -0.5768  -0.5715  -0.5647  -0.5582  -0.5532
 -0.5492  -0.5323  -0.5308  -0.5261  -0.5130  -0.5076  -0.5068  -0.5013
 -0.4854  -0.4812  -0.4770  -0.4740  -0.4721  -0.4678  -0.4607  -0.4460
 -0.4239  -0.3995  -0.3848  -0.3699  -0.3511  -0.3009  -0.2888  -0.2203

          Ground-State Mulliken Net Atomic Charges

     Atom                 Charge (a.u.)
  ----------------------------------------
      1 C                    -0.070150
      2 C                    -0.261646
      3 S                    -0.135747
      4 C                    -0.043896
      5 H                     0.193096
      6 C                    -0.052386
      7 C                     0.226331
      8 C                     0.225361
      9 C                    -0.080723
     10 C                    -0.065099
     11 O                    -0.335164
     12 O                    -0.343582
     13 C                    -0.082605
     14 H                     0.120125
     15 H                     0.091663
     16 H                     0.093231
     17 C                    -0.086471
     18 H                     0.122946
     19 H                     0.091533
     20 H                     0.090522
     21 C                    -0.233092
     22 S                    -0.075141
     23 C                     0.074180
     24 H                     0.208090
     25 C                    -0.119386
     26 S                     0.091957
     27 C                    -0.186622
     28 C                     0.045468
     29 C                    -0.118164
     30 S                     0.007096
     31 C                    -0.157123
     32 C                     0.401344
     33 F                    -0.207218
     34 C                     0.444036
     35 O                    -0.460618
     36 O                    -0.300536
     37 C                    -0.058642
     38 H                     0.121391
     39 H                     0.095120
     40 H                     0.095228
     41 H                     0.219132
     42 H                     0.116929
     43 H                     0.114822
     44 H                     0.184411
  ----------------------------------------
  Sum of atomic charges =     0.000000

                    Cartesian Multipole Moments
 -----------------------------------------------------------------
    Charge (ESU x 10^10)
                 0.0000
    Dipole Moment (Debye)
         X      -0.1275      Y       3.1080      Z       3.5308
       Tot       4.7055
    Quadrupole Moments (Debye-Ang)
        XX    -190.8401     XY      -3.3775     YY    -175.7254
        XZ       9.0868     YZ      -8.6167     ZZ    -198.9005

 Total job time:  326.66s(wall), 10743.59s(cpu)
        *  Thank you very much for using Q-Chem.  Have a nice day.  *
