 Q-Chem 5.4, Q-Chem, Inc., Pleasanton, CA (2021)
 Q-Chem 5.4.0 for Intel X86 EM64T Linux

User input:
--------------------------------------------------------------
$molecule
0 1
C	-0.172904	-8.517702	-0.270358
C	0.524688	-7.641575	0.548363
S	-1.180599	-7.638634	-1.445750
C	0.282727	-6.264785	0.259951
H	1.203014	-7.966081	1.347559
C	-0.632972	-6.072714	-0.833868
C	-1.013580	-4.787049	-1.248701
C	0.845068	-5.162801	0.965673
C	0.460946	-3.874817	0.553357
C	-0.453541	-3.683952	-0.543470
O	1.714812	-5.499772	1.958276
O	-1.888193	-4.459055	-2.245053
C	-2.033848	-5.329063	-3.360989
H	-2.584788	-4.755694	-4.130667
H	-2.624118	-6.238095	-3.112380
H	-1.047748	-5.637262	-3.770895
C	2.013896	-4.572261	2.994272
H	2.570853	-5.139743	3.763700
H	1.090625	-4.153131	3.448815
H	2.657717	-3.739531	2.636780
C	-0.694943	-2.306654	-0.827659
S	0.999993	-2.306501	1.174750
C	0.000000	-1.435185	0.000000
H	-1.370385	-1.978138	-1.627541
C	0.000000	0.000000	0.000000
S	0.452792	0.783312	1.507541
C	1.238397	2.145556	0.718873
C	0.452875	0.782898	-1.067872
C	1.145945	1.987956	-0.686410
S	0.333556	0.570531	-2.805516
C	1.204604	2.090290	-3.054530
C	1.556633	2.704929	-1.862551
F	2.220797	3.864903	-1.819088
C	1.430252	2.477345	-4.456084
O	1.052242	1.806648	-5.406510
O	2.099050	3.650663	-4.569225
C	2.351116	4.076808	-5.916207
H	2.895579	5.033821	-5.833064
H	1.401015	4.217390	-6.470168
H	2.962391	3.327969	-6.459293
H	1.699302	2.946693	1.306486
H	-0.859314	-9.143623	0.311979
H	0.508666	-9.149441	-0.852097
H	-0.822504	-1.443175	0.699874
$end

$rem
JOBTYPE		SP
EXCHANGE	HF
CORRELATION	pRIMP2
BASIS		cc-pvtz
METHOD		rimp2
AUX_BASIS	rimp2-cc-pvtz
SOLVENT_METHOD	PCM
PURECART	11111
SYMMETRY	false
MEM_TOTAL	110000
SCF_CONVERGENCE = 6
THRESH=10
GUI = 2
$end

$solvent
dielectric 4.90
$end
--------------------------------------------------------------

             Standard Nuclear Orientation (Angstroms)
    I     Atom           X                Y                Z
 ----------------------------------------------------------------
    1      C      -0.1729040000    -8.5177020000    -0.2703580000
    2      C       0.5246880000    -7.6415750000     0.5483630000
    3      S      -1.1805990000    -7.6386340000    -1.4457500000
    4      C       0.2827270000    -6.2647850000     0.2599510000
    5      H       1.2030140000    -7.9660810000     1.3475590000
    6      C      -0.6329720000    -6.0727140000    -0.8338680000
    7      C      -1.0135800000    -4.7870490000    -1.2487010000
    8      C       0.8450680000    -5.1628010000     0.9656730000
    9      C       0.4609460000    -3.8748170000     0.5533570000
   10      C      -0.4535410000    -3.6839520000    -0.5434700000
   11      O       1.7148120000    -5.4997720000     1.9582760000
   12      O      -1.8881930000    -4.4590550000    -2.2450530000
   13      C      -2.0338480000    -5.3290630000    -3.3609890000
   14      H      -2.5847880000    -4.7556940000    -4.1306670000
   15      H      -2.6241180000    -6.2380950000    -3.1123800000
   16      H      -1.0477480000    -5.6372620000    -3.7708950000
   17      C       2.0138960000    -4.5722610000     2.9942720000
   18      H       2.5708530000    -5.1397430000     3.7637000000
   19      H       1.0906250000    -4.1531310000     3.4488150000
   20      H       2.6577170000    -3.7395310000     2.6367800000
   21      C      -0.6949430000    -2.3066540000    -0.8276590000
   22      S       0.9999930000    -2.3065010000     1.1747500000
   23      C       0.0000000000    -1.4351850000     0.0000000000
   24      H      -1.3703850000    -1.9781380000    -1.6275410000
   25      C       0.0000000000     0.0000000000     0.0000000000
   26      S       0.4527920000     0.7833120000     1.5075410000
   27      C       1.2383970000     2.1455560000     0.7188730000
   28      C       0.4528750000     0.7828980000    -1.0678720000
   29      C       1.1459450000     1.9879560000    -0.6864100000
   30      S       0.3335560000     0.5705310000    -2.8055160000
   31      C       1.2046040000     2.0902900000    -3.0545300000
   32      C       1.5566330000     2.7049290000    -1.8625510000
   33      F       2.2207970000     3.8649030000    -1.8190880000
   34      C       1.4302520000     2.4773450000    -4.4560840000
   35      O       1.0522420000     1.8066480000    -5.4065100000
   36      O       2.0990500000     3.6506630000    -4.5692250000
   37      C       2.3511160000     4.0768080000    -5.9162070000
   38      H       2.8955790000     5.0338210000    -5.8330640000
   39      H       1.4010150000     4.2173900000    -6.4701680000
   40      H       2.9623910000     3.3279690000    -6.4592930000
   41      H       1.6993020000     2.9466930000     1.3064860000
   42      H      -0.8593140000    -9.1436230000     0.3119790000
   43      H       0.5086660000    -9.1494410000    -0.8520970000
   44      H      -0.8225040000    -1.4431750000     0.6998740000
 ----------------------------------------------------------------

   11   -2755.3250284406      8.39e-07  Convergence criterion met
 Total energy in the final basis set =    -2755.3250284406
        RIMP2         total energy =     -2760.4184481674 a.u.

                    Orbital Energies (a.u.)
 --------------------------------------------------------------

 Alpha MOs
 -- Occupied --
-92.0159 -92.0003 -91.9784 -91.9570 -26.3440 -20.6153 -20.5865 -20.5862
-20.5619 -11.4101 -11.3835 -11.3146 -11.3085 -11.3058 -11.3012 -11.2986
-11.2958 -11.2892 -11.2859 -11.2844 -11.2824 -11.2820 -11.2777 -11.2734
-11.2712 -11.2572 -11.2559 -11.2484 -11.2340  -9.0149  -9.0004  -8.9807
 -8.9596  -6.6956  -6.6950  -6.6945  -6.6814  -6.6806  -6.6795  -6.6617
 -6.6608  -6.6595  -6.6408  -6.6399  -6.6389  -1.6611  -1.4678  -1.4097
 -1.4082  -1.3705  -1.2310  -1.2023  -1.1726  -1.1386  -1.0990  -1.0456
 -1.0453  -1.0252  -1.0035  -0.9964  -0.9636  -0.9592  -0.9477  -0.9402
 -0.8934  -0.8695  -0.8650  -0.8127  -0.7998  -0.7891  -0.7835  -0.7665
 -0.7571  -0.7373  -0.7260  -0.7160  -0.6974  -0.6874  -0.6850  -0.6799
 -0.6744  -0.6609  -0.6559  -0.6480  -0.6359  -0.6305  -0.6188  -0.6142
 -0.6119  -0.5999  -0.5918  -0.5760  -0.5707  -0.5643  -0.5576  -0.5539
 -0.5446  -0.5338  -0.5308  -0.5282  -0.5134  -0.5083  -0.5073  -0.5004
 -0.4849  -0.4822  -0.4756  -0.4749  -0.4723  -0.4689  -0.4580  -0.4452
 -0.4283  -0.3949  -0.3851  -0.3690  -0.3512  -0.3018  -0.2879  -0.2165

          Ground-State Mulliken Net Atomic Charges

     Atom                 Charge (a.u.)
  ----------------------------------------
      1 C                    -0.069650
      2 C                    -0.269056
      3 S                    -0.137759
      4 C                    -0.042100
      5 H                     0.192257
      6 C                    -0.053048
      7 C                     0.221725
      8 C                     0.219462
      9 C                    -0.077225
     10 C                    -0.050759
     11 O                    -0.334970
     12 O                    -0.343850
     13 C                    -0.082692
     14 H                     0.120313
     15 H                     0.091977
     16 H                     0.093007
     17 C                    -0.087602
     18 H                     0.123479
     19 H                     0.091555
     20 H                     0.089730
     21 C                    -0.267613
     22 S                    -0.077093
     23 C                     0.054888
     24 H                     0.209934
     25 C                    -0.103479
     26 S                     0.077892
     27 C                    -0.167005
     28 C                     0.054619
     29 C                    -0.114700
     30 S                     0.012792
     31 C                    -0.155916
     32 C                     0.400085
     33 F                    -0.206323
     34 C                     0.445518
     35 O                    -0.460605
     36 O                    -0.300918
     37 C                    -0.058426
     38 H                     0.121537
     39 H                     0.095136
     40 H                     0.095326
     41 H                     0.219264
     42 H                     0.116110
     43 H                     0.113842
     44 H                     0.200344
  ----------------------------------------
  Sum of atomic charges =     0.000000

                    Cartesian Multipole Moments
 -----------------------------------------------------------------
    Charge (ESU x 10^10)
                 0.0000
    Dipole Moment (Debye)
         X       1.1430      Y       3.2740      Z       3.3530
       Tot       4.8237
    Quadrupole Moments (Debye-Ang)
        XX    -195.4392     XY       4.8758     YY    -182.6818
        XZ       2.4962     YZ      -9.2574     ZZ    -189.6681

 Total job time:  340.87s(wall), 10639.57s(cpu)
        *  Thank you very much for using Q-Chem.  Have a nice day.  *
