 Q-Chem 5.4, Q-Chem, Inc., Pleasanton, CA (2021)
 Q-Chem 5.4.0 for Intel X86 EM64T Linux

User input:
--------------------------------------------------------------
$molecule
0 1
C	0.147685	-8.517702	-0.284919
C	-0.212552	-7.641575	0.728574
S	0.661757	-7.638634	-1.745304
C	-0.083761	-6.264785	0.374824
H	-0.565513	-7.966081	1.715621
C	0.405665	-6.072714	-0.965104
C	0.574617	-4.787049	-1.502136
C	-0.413763	-5.162801	1.214687
C	-0.248748	-3.874817	0.675870
C	0.243888	-3.683952	-0.664513
O	-0.838511	-5.499772	2.464209
O	1.000176	-4.459055	-2.757750
C	1.893778	-5.329063	-3.441858
H	2.284868	-4.755694	-4.303826
H	1.383341	-6.238095	-3.828743
H	2.741817	-5.637262	-2.792824
C	-1.586168	-4.572261	3.241222
H	-1.974033	-5.139743	4.108274
H	-2.441448	-4.153131	2.668916
H	-0.954660	-3.739531	3.620041
C	0.369302	-2.306654	-1.015668
S	-0.517367	-2.306501	1.453394
C	-0.000000	-1.435185	-0.000000
H	0.724300	-1.978138	-2.000559
C	0.000000	0.000000	0.000000
S	0.382799	0.819795	1.507541
C	1.046687	2.245325	0.718873
C	0.382918	0.819389	-1.067872
C	0.968323	2.080267	-0.686410
S	0.282561	0.597432	-2.805516
C	1.017839	2.187324	-3.054530
C	1.314960	2.830306	-1.862551
F	1.875498	4.043751	-1.819088
C	1.208895	2.592573	-4.456084
O	0.890778	1.891482	-5.406510
O	1.772886	3.819715	-4.569225
C	1.986852	4.266207	-5.916207
H	2.445834	5.267032	-5.833064
H	1.028114	4.323448	-6.470168
H	2.661066	3.573494	-6.459293
H	1.436015	3.083584	1.306486
H	-0.699838	-9.143623	-0.588198
H	0.992270	-9.149441	0.014470
H	-1.017360	-1.443175	-0.362373
$end

$rem
JOBTYPE		SP
EXCHANGE	HF
CORRELATION	pRIMP2
BASIS		cc-pvtz
METHOD		rimp2
AUX_BASIS	rimp2-cc-pvtz
SOLVENT_METHOD	PCM
PURECART	11111
SYMMETRY	false
MEM_TOTAL	110000
SCF_CONVERGENCE = 6
THRESH=10
GUI = 2
$end

$solvent
dielectric 4.90
$end
--------------------------------------------------------------

             Standard Nuclear Orientation (Angstroms)
    I     Atom           X                Y                Z
 ----------------------------------------------------------------
    1      C       0.1476850000    -8.5177020000    -0.2849190000
    2      C      -0.2125520000    -7.6415750000     0.7285740000
    3      S       0.6617570000    -7.6386340000    -1.7453040000
    4      C      -0.0837610000    -6.2647850000     0.3748240000
    5      H      -0.5655130000    -7.9660810000     1.7156210000
    6      C       0.4056650000    -6.0727140000    -0.9651040000
    7      C       0.5746170000    -4.7870490000    -1.5021360000
    8      C      -0.4137630000    -5.1628010000     1.2146870000
    9      C      -0.2487480000    -3.8748170000     0.6758700000
   10      C       0.2438880000    -3.6839520000    -0.6645130000
   11      O      -0.8385110000    -5.4997720000     2.4642090000
   12      O       1.0001760000    -4.4590550000    -2.7577500000
   13      C       1.8937780000    -5.3290630000    -3.4418580000
   14      H       2.2848680000    -4.7556940000    -4.3038260000
   15      H       1.3833410000    -6.2380950000    -3.8287430000
   16      H       2.7418170000    -5.6372620000    -2.7928240000
   17      C      -1.5861680000    -4.5722610000     3.2412220000
   18      H      -1.9740330000    -5.1397430000     4.1082740000
   19      H      -2.4414480000    -4.1531310000     2.6689160000
   20      H      -0.9546600000    -3.7395310000     3.6200410000
   21      C       0.3693020000    -2.3066540000    -1.0156680000
   22      S      -0.5173670000    -2.3065010000     1.4533940000
   23      C       0.0000000000    -1.4351850000     0.0000000000
   24      H       0.7243000000    -1.9781380000    -2.0005590000
   25      C       0.0000000000     0.0000000000     0.0000000000
   26      S       0.3827990000     0.8197950000     1.5075410000
   27      C       1.0466870000     2.2453250000     0.7188730000
   28      C       0.3829180000     0.8193890000    -1.0678720000
   29      C       0.9683230000     2.0802670000    -0.6864100000
   30      S       0.2825610000     0.5974320000    -2.8055160000
   31      C       1.0178390000     2.1873240000    -3.0545300000
   32      C       1.3149600000     2.8303060000    -1.8625510000
   33      F       1.8754980000     4.0437510000    -1.8190880000
   34      C       1.2088950000     2.5925730000    -4.4560840000
   35      O       0.8907780000     1.8914820000    -5.4065100000
   36      O       1.7728860000     3.8197150000    -4.5692250000
   37      C       1.9868520000     4.2662070000    -5.9162070000
   38      H       2.4458340000     5.2670320000    -5.8330640000
   39      H       1.0281140000     4.3234480000    -6.4701680000
   40      H       2.6610660000     3.5734940000    -6.4592930000
   41      H       1.4360150000     3.0835840000     1.3064860000
   42      H      -0.6998380000    -9.1436230000    -0.5881980000
   43      H       0.9922700000    -9.1494410000     0.0144700000
   44      H      -1.0173600000    -1.4431750000    -0.3623730000
 ----------------------------------------------------------------

   11   -2755.3286872810      8.22e-07  Convergence criterion met
 Total energy in the final basis set =    -2755.3286872810
        RIMP2         total energy =     -2760.4235578873 a.u.

                    Orbital Energies (a.u.)
 --------------------------------------------------------------

 Alpha MOs
 -- Occupied --
-92.0133 -91.9992 -91.9816 -91.9584 -26.3437 -20.6153 -20.5883 -20.5871
-20.5618 -11.4099 -11.3829 -11.3096 -11.3094 -11.3058 -11.3045 -11.2985
-11.2976 -11.2891 -11.2855 -11.2855 -11.2850 -11.2824 -11.2814 -11.2736
-11.2730 -11.2588 -11.2588 -11.2500 -11.2377  -9.0122  -8.9994  -8.9838
 -8.9610  -6.6930  -6.6923  -6.6918  -6.6804  -6.6797  -6.6785  -6.6649
 -6.6641  -6.6628  -6.6422  -6.6413  -6.6402  -1.6607  -1.4677  -1.4116
 -1.4090  -1.3704  -1.2310  -1.2030  -1.1743  -1.1377  -1.1009  -1.0475
 -1.0458  -1.0240  -1.0039  -0.9985  -0.9631  -0.9595  -0.9491  -0.9412
 -0.8949  -0.8709  -0.8644  -0.8097  -0.8012  -0.7904  -0.7841  -0.7679
 -0.7575  -0.7372  -0.7256  -0.7109  -0.6993  -0.6937  -0.6851  -0.6813
 -0.6742  -0.6636  -0.6569  -0.6490  -0.6386  -0.6312  -0.6203  -0.6151
 -0.6122  -0.5990  -0.5935  -0.5777  -0.5712  -0.5656  -0.5595  -0.5554
 -0.5439  -0.5348  -0.5310  -0.5278  -0.5132  -0.5096  -0.5082  -0.5017
 -0.4852  -0.4822  -0.4772  -0.4740  -0.4700  -0.4658  -0.4610  -0.4473
 -0.4320  -0.3948  -0.3860  -0.3709  -0.3504  -0.2997  -0.2888  -0.2172

          Ground-State Mulliken Net Atomic Charges

     Atom                 Charge (a.u.)
  ----------------------------------------
      1 C                    -0.070342
      2 C                    -0.258900
      3 S                    -0.134975
      4 C                    -0.048632
      5 H                     0.193523
      6 C                    -0.051483
      7 C                     0.223436
      8 C                     0.232622
      9 C                    -0.073256
     10 C                    -0.037182
     11 O                    -0.334137
     12 O                    -0.343424
     13 C                    -0.083176
     14 H                     0.121001
     15 H                     0.092363
     16 H                     0.092783
     17 C                    -0.088243
     18 H                     0.124747
     19 H                     0.093058
     20 H                     0.089970
     21 C                    -0.314916
     22 S                    -0.096872
     23 C                     0.119285
     24 H                     0.201636
     25 C                    -0.031149
     26 S                     0.094527
     27 C                    -0.214044
     28 C                    -0.047639
     29 C                    -0.087395
     30 S                     0.008839
     31 C                    -0.162484
     32 C                     0.405823
     33 F                    -0.206499
     34 C                     0.443691
     35 O                    -0.460759
     36 O                    -0.300775
     37 C                    -0.058479
     38 H                     0.121583
     39 H                     0.095233
     40 H                     0.095158
     41 H                     0.216460
     42 H                     0.117598
     43 H                     0.115247
     44 H                     0.206177
  ----------------------------------------
  Sum of atomic charges =     0.000000

                    Cartesian Multipole Moments
 -----------------------------------------------------------------
    Charge (ESU x 10^10)
                -0.0000
    Dipole Moment (Debye)
         X       0.4342      Y       2.1324      Z       2.9090
       Tot       3.6329
    Quadrupole Moments (Debye-Ang)
        XX    -191.7266     XY       7.4578     YY    -176.1920
        XZ     -12.4085     YZ     -10.8471     ZZ    -194.9520

 Total job time:  330.32s(wall), 10674.66s(cpu)
        *  Thank you very much for using Q-Chem.  Have a nice day.  *
