 Q-Chem 5.4, Q-Chem, Inc., Pleasanton, CA (2021)
 Q-Chem 5.4.0 for Intel X86 EM64T Linux

User input:
--------------------------------------------------------------
$molecule
0 1
C	0.041330	-8.517702	-0.318247
C	0.049453	-7.641575	0.757333
S	0.024919	-7.638634	-1.866383
C	0.049488	-6.264785	0.380867
H	0.055368	-7.966081	1.805573
C	0.051115	-6.072714	-1.045647
C	0.026203	-4.787049	-1.608077
C	0.026637	-5.162801	1.282948
C	-0.002586	-3.874817	0.720187
C	0.001903	-3.683952	-0.707853
O	0.054867	-5.499772	2.602386
O	-0.003348	-4.459055	-2.933517
C	0.602384	-5.329063	-3.881999
H	0.675079	-4.755694	-4.825744
H	-0.009592	-6.238095	-4.070972
H	1.621263	-5.637262	-3.562152
C	-0.381947	-4.572261	3.588253
H	-0.449872	-5.139743	4.535674
H	-1.381388	-4.153131	3.342986
H	0.341040	-3.739531	3.728239
C	-0.000348	-2.306654	-1.080725
S	0.010924	-2.306501	1.542694
C	-0.000000	-1.435185	-0.000000
H	-0.003612	-1.978138	-2.127635
C	0.000000	0.000000	0.000000
S	0.079327	0.901280	1.507541
C	0.215617	2.467903	0.718873
C	0.079577	0.900940	-1.067872
C	0.198433	2.285998	-0.686410
S	0.061187	0.658044	-2.805516
C	0.208347	2.403534	-3.054530
C	0.267636	3.109360	-1.862551
F	0.379347	4.441341	-1.819088
C	0.249278	2.849688	-4.456084
O	0.190132	2.082076	-5.406510
O	0.359548	4.195721	-4.569225
C	0.407901	4.688467	-5.916207
H	0.496901	5.785916	-5.833064
H	-0.512596	4.414348	-6.470168
H	1.278377	4.268124	-6.459293
H	0.294764	3.388767	1.306486
H	-0.858809	-9.143623	-0.313367
H	0.937378	-9.149441	-0.325780
H	-1.079945	-1.443175	0.007439
$end

$rem
JOBTYPE		SP
EXCHANGE	HF
CORRELATION	pRIMP2
BASIS		cc-pvtz
METHOD		rimp2
AUX_BASIS	rimp2-cc-pvtz
SOLVENT_METHOD	PCM
PURECART	11111
SYMMETRY	false
MEM_TOTAL	110000
SCF_CONVERGENCE = 6
THRESH=10
GUI = 2
$end

$solvent
dielectric 4.90
$end
--------------------------------------------------------------

             Standard Nuclear Orientation (Angstroms)
    I     Atom           X                Y                Z
 ----------------------------------------------------------------
    1      C       0.0413300000    -8.5177020000    -0.3182470000
    2      C       0.0494530000    -7.6415750000     0.7573330000
    3      S       0.0249190000    -7.6386340000    -1.8663830000
    4      C       0.0494880000    -6.2647850000     0.3808670000
    5      H       0.0553680000    -7.9660810000     1.8055730000
    6      C       0.0511150000    -6.0727140000    -1.0456470000
    7      C       0.0262030000    -4.7870490000    -1.6080770000
    8      C       0.0266370000    -5.1628010000     1.2829480000
    9      C      -0.0025860000    -3.8748170000     0.7201870000
   10      C       0.0019030000    -3.6839520000    -0.7078530000
   11      O       0.0548670000    -5.4997720000     2.6023860000
   12      O      -0.0033480000    -4.4590550000    -2.9335170000
   13      C       0.6023840000    -5.3290630000    -3.8819990000
   14      H       0.6750790000    -4.7556940000    -4.8257440000
   15      H      -0.0095920000    -6.2380950000    -4.0709720000
   16      H       1.6212630000    -5.6372620000    -3.5621520000
   17      C      -0.3819470000    -4.5722610000     3.5882530000
   18      H      -0.4498720000    -5.1397430000     4.5356740000
   19      H      -1.3813880000    -4.1531310000     3.3429860000
   20      H       0.3410400000    -3.7395310000     3.7282390000
   21      C      -0.0003480000    -2.3066540000    -1.0807250000
   22      S       0.0109240000    -2.3065010000     1.5426940000
   23      C       0.0000000000    -1.4351850000     0.0000000000
   24      H      -0.0036120000    -1.9781380000    -2.1276350000
   25      C       0.0000000000     0.0000000000     0.0000000000
   26      S       0.0793270000     0.9012800000     1.5075410000
   27      C       0.2156170000     2.4679030000     0.7188730000
   28      C       0.0795770000     0.9009400000    -1.0678720000
   29      C       0.1984330000     2.2859980000    -0.6864100000
   30      S       0.0611870000     0.6580440000    -2.8055160000
   31      C       0.2083470000     2.4035340000    -3.0545300000
   32      C       0.2676360000     3.1093600000    -1.8625510000
   33      F       0.3793470000     4.4413410000    -1.8190880000
   34      C       0.2492780000     2.8496880000    -4.4560840000
   35      O       0.1901320000     2.0820760000    -5.4065100000
   36      O       0.3595480000     4.1957210000    -4.5692250000
   37      C       0.4079010000     4.6884670000    -5.9162070000
   38      H       0.4969010000     5.7859160000    -5.8330640000
   39      H      -0.5125960000     4.4143480000    -6.4701680000
   40      H       1.2783770000     4.2681240000    -6.4592930000
   41      H       0.2947640000     3.3887670000     1.3064860000
   42      H      -0.8588090000    -9.1436230000    -0.3133670000
   43      H       0.9373780000    -9.1494410000    -0.3257800000
   44      H      -1.0799450000    -1.4431750000     0.0074390000
 ----------------------------------------------------------------

   11   -2755.3420727577      8.81e-07  Convergence criterion met
 Total energy in the final basis set =    -2755.3420727577
        RIMP2         total energy =     -2760.4326590413 a.u.

                    Orbital Energies (a.u.)
 --------------------------------------------------------------

 Alpha MOs
 -- Occupied --
-92.0150 -91.9958 -91.9831 -91.9597 -26.3425 -20.6149 -20.5897 -20.5876
-20.5615 -11.4094 -11.3812 -11.3123 -11.3119 -11.3102 -11.2991 -11.2981
-11.2907 -11.2888 -11.2863 -11.2861 -11.2852 -11.2844 -11.2827 -11.2749
-11.2742 -11.2616 -11.2600 -11.2514 -11.2409  -9.0137  -8.9961  -8.9854
 -8.9622  -6.6945  -6.6939  -6.6933  -6.6772  -6.6764  -6.6753  -6.6665
 -6.6656  -6.6643  -6.6435  -6.6425  -6.6415  -1.6596  -1.4673  -1.4130
 -1.4095  -1.3700  -1.2301  -1.2034  -1.1758  -1.1374  -1.1018  -1.0487
 -1.0449  -1.0233  -1.0049  -0.9998  -0.9632  -0.9594  -0.9500  -0.9407
 -0.8961  -0.8708  -0.8651  -0.8088  -0.8025  -0.7902  -0.7847  -0.7693
 -0.7566  -0.7385  -0.7245  -0.7120  -0.6997  -0.6920  -0.6847  -0.6814
 -0.6739  -0.6639  -0.6577  -0.6496  -0.6397  -0.6321  -0.6217  -0.6160
 -0.6122  -0.5982  -0.5938  -0.5769  -0.5719  -0.5654  -0.5605  -0.5527
 -0.5494  -0.5361  -0.5316  -0.5295  -0.5146  -0.5099  -0.5088  -0.5017
 -0.4854  -0.4823  -0.4771  -0.4735  -0.4709  -0.4667  -0.4615  -0.4484
 -0.4345  -0.3945  -0.3879  -0.3724  -0.3504  -0.2982  -0.2892  -0.2186

          Ground-State Mulliken Net Atomic Charges

     Atom                 Charge (a.u.)
  ----------------------------------------
      1 C                    -0.070601
      2 C                    -0.249782
      3 S                    -0.132168
      4 C                    -0.050774
      5 H                     0.194825
      6 C                    -0.049233
      7 C                     0.227309
      8 C                     0.235257
      9 C                    -0.074983
     10 C                    -0.037739
     11 O                    -0.333284
     12 O                    -0.344258
     13 C                    -0.083640
     14 H                     0.121597
     15 H                     0.092758
     16 H                     0.093006
     17 C                    -0.089111
     18 H                     0.125272
     19 H                     0.093408
     20 H                     0.090435
     21 C                    -0.317537
     22 S                    -0.096866
     23 C                     0.149290
     24 H                     0.195403
     25 C                    -0.068996
     26 S                     0.068693
     27 C                    -0.219074
     28 C                     0.043546
     29 C                    -0.132114
     30 S                    -0.016873
     31 C                    -0.165641
     32 C                     0.411823
     33 F                    -0.207918
     34 C                     0.442992
     35 O                    -0.460995
     36 O                    -0.300451
     37 C                    -0.058862
     38 H                     0.121567
     39 H                     0.095193
     40 H                     0.095170
     41 H                     0.217998
     42 H                     0.118776
     43 H                     0.116524
     44 H                     0.210057
  ----------------------------------------
  Sum of atomic charges =     0.000000

                    Cartesian Multipole Moments
 -----------------------------------------------------------------
    Charge (ESU x 10^10)
                 0.0000
    Dipole Moment (Debye)
         X      -0.4901      Y       1.2924      Z       3.3780
       Tot       3.6499
    Quadrupole Moments (Debye-Ang)
        XX    -199.8804     XY       1.3617     YY    -168.7774
        XZ      -6.3749     YZ     -12.1259     ZZ    -189.7862

 Total job time:  344.30s(wall), 11721.55s(cpu)
        *  Thank you very much for using Q-Chem.  Have a nice day.  *
