 Q-Chem 5.4, Q-Chem, Inc., Pleasanton, CA (2021)
 Q-Chem 5.4.0 for Intel X86 EM64T Linux

User input:
--------------------------------------------------------------
$molecule
0 1
C	0.014560	-8.517702	0.320589
C	-0.180211	-7.641575	-0.737240
S	0.299553	-7.638634	1.842356
C	-0.114873	-6.264785	-0.366488
H	-0.368061	-7.966081	-1.768528
C	0.131236	-6.072714	1.038637
C	0.253435	-4.787049	1.588197
C	-0.249014	-5.162801	-1.258831
C	-0.122513	-3.874817	-0.709695
C	0.121043	-3.683952	0.697430
O	-0.505933	-5.499772	-2.553323
O	0.512697	-4.459055	2.888369
C	0.080869	-5.329063	3.927625
H	0.173159	-4.755694	4.869656
H	0.716363	-6.238095	4.007459
H	-0.978072	-5.637262	3.789565
C	-0.246949	-4.572261	-3.600064
H	-0.344574	-5.139743	-4.544887
H	0.779898	-4.153131	-3.532074
H	-0.983261	-3.739531	-3.612378
C	0.188009	-2.306654	1.064246
S	-0.278644	-2.306501	-1.517360
C	-0.000000	-1.435185	-0.000000
H	0.373017	-1.978138	2.094685
C	0.000000	0.000000	0.000000
S	0.079327	0.901280	1.507541
C	0.215617	2.467903	0.718873
C	0.079577	0.900940	-1.067872
C	0.198433	2.285998	-0.686410
S	0.061187	0.658044	-2.805516
C	0.208347	2.403534	-3.054530
C	0.267636	3.109360	-1.862551
F	0.379347	4.441341	-1.819088
C	0.249278	2.849688	-4.456084
O	0.190132	2.082076	-5.406510
O	0.359548	4.195721	-4.569225
C	0.407901	4.688467	-5.916207
H	0.496901	5.785916	-5.833064
H	-0.512596	4.414348	-6.470168
H	1.278377	4.268124	-6.459293
H	0.294764	3.388767	1.306486
H	0.900177	-9.143623	0.159475
H	-0.866566	-9.149441	0.483604
H	1.062246	-1.443175	-0.194856
$end

$rem
JOBTYPE		SP
EXCHANGE	HF
CORRELATION	pRIMP2
BASIS		cc-pvtz
METHOD		rimp2
AUX_BASIS	rimp2-cc-pvtz
SOLVENT_METHOD	PCM
PURECART	11111
SYMMETRY	false
MEM_TOTAL	110000
SCF_CONVERGENCE = 6
THRESH=10
GUI = 2
$end

$solvent
dielectric 4.90
$end
--------------------------------------------------------------

             Standard Nuclear Orientation (Angstroms)
    I     Atom           X                Y                Z
 ----------------------------------------------------------------
    1      C       0.0145600000    -8.5177020000     0.3205890000
    2      C      -0.1802110000    -7.6415750000    -0.7372400000
    3      S       0.2995530000    -7.6386340000     1.8423560000
    4      C      -0.1148730000    -6.2647850000    -0.3664880000
    5      H      -0.3680610000    -7.9660810000    -1.7685280000
    6      C       0.1312360000    -6.0727140000     1.0386370000
    7      C       0.2534350000    -4.7870490000     1.5881970000
    8      C      -0.2490140000    -5.1628010000    -1.2588310000
    9      C      -0.1225130000    -3.8748170000    -0.7096950000
   10      C       0.1210430000    -3.6839520000     0.6974300000
   11      O      -0.5059330000    -5.4997720000    -2.5533230000
   12      O       0.5126970000    -4.4590550000     2.8883690000
   13      C       0.0808690000    -5.3290630000     3.9276250000
   14      H       0.1731590000    -4.7556940000     4.8696560000
   15      H       0.7163630000    -6.2380950000     4.0074590000
   16      H      -0.9780720000    -5.6372620000     3.7895650000
   17      C      -0.2469490000    -4.5722610000    -3.6000640000
   18      H      -0.3445740000    -5.1397430000    -4.5448870000
   19      H       0.7798980000    -4.1531310000    -3.5320740000
   20      H      -0.9832610000    -3.7395310000    -3.6123780000
   21      C       0.1880090000    -2.3066540000     1.0642460000
   22      S      -0.2786440000    -2.3065010000    -1.5173600000
   23      C       0.0000000000    -1.4351850000     0.0000000000
   24      H       0.3730170000    -1.9781380000     2.0946850000
   25      C       0.0000000000     0.0000000000     0.0000000000
   26      S       0.0793270000     0.9012800000     1.5075410000
   27      C       0.2156170000     2.4679030000     0.7188730000
   28      C       0.0795770000     0.9009400000    -1.0678720000
   29      C       0.1984330000     2.2859980000    -0.6864100000
   30      S       0.0611870000     0.6580440000    -2.8055160000
   31      C       0.2083470000     2.4035340000    -3.0545300000
   32      C       0.2676360000     3.1093600000    -1.8625510000
   33      F       0.3793470000     4.4413410000    -1.8190880000
   34      C       0.2492780000     2.8496880000    -4.4560840000
   35      O       0.1901320000     2.0820760000    -5.4065100000
   36      O       0.3595480000     4.1957210000    -4.5692250000
   37      C       0.4079010000     4.6884670000    -5.9162070000
   38      H       0.4969010000     5.7859160000    -5.8330640000
   39      H      -0.5125960000     4.4143480000    -6.4701680000
   40      H       1.2783770000     4.2681240000    -6.4592930000
   41      H       0.2947640000     3.3887670000     1.3064860000
   42      H       0.9001770000    -9.1436230000     0.1594750000
   43      H      -0.8665660000    -9.1494410000     0.4836040000
   44      H       1.0622460000    -1.4431750000    -0.1948560000
 ----------------------------------------------------------------

   11   -2755.3433919418      8.39e-07  Convergence criterion met
 Total energy in the final basis set =    -2755.3433919418
        RIMP2         total energy =     -2760.4345374596 a.u.

                    Orbital Energies (a.u.)
 --------------------------------------------------------------

 Alpha MOs
 -- Occupied --
-92.0141 -91.9943 -91.9810 -91.9602 -26.3419 -20.6146 -20.5888 -20.5884
-20.5611 -11.4090 -11.3802 -11.3126 -11.3112 -11.3103 -11.2984 -11.2971
-11.2907 -11.2887 -11.2855 -11.2851 -11.2849 -11.2842 -11.2838 -11.2758
-11.2734 -11.2622 -11.2600 -11.2517 -11.2412  -9.0127  -8.9946  -8.9834
 -8.9628  -6.6936  -6.6930  -6.6924  -6.6757  -6.6749  -6.6737  -6.6645
 -6.6636  -6.6623  -6.6440  -6.6431  -6.6421  -1.6590  -1.4670  -1.4121
 -1.4102  -1.3697  -1.2301  -1.2029  -1.1759  -1.1369  -1.1017  -1.0490
 -1.0440  -1.0236  -1.0052  -0.9986  -0.9637  -0.9570  -0.9498  -0.9420
 -0.8953  -0.8701  -0.8651  -0.8153  -0.7923  -0.7906  -0.7850  -0.7703
 -0.7568  -0.7375  -0.7240  -0.7100  -0.6967  -0.6952  -0.6844  -0.6819
 -0.6736  -0.6643  -0.6568  -0.6497  -0.6384  -0.6319  -0.6219  -0.6163
 -0.6113  -0.5997  -0.5935  -0.5765  -0.5715  -0.5666  -0.5605  -0.5565
 -0.5501  -0.5321  -0.5314  -0.5273  -0.5163  -0.5119  -0.5085  -0.5011
 -0.4850  -0.4801  -0.4762  -0.4740  -0.4709  -0.4656  -0.4603  -0.4481
 -0.4328  -0.3982  -0.3838  -0.3727  -0.3502  -0.3000  -0.2866  -0.2186

          Ground-State Mulliken Net Atomic Charges

     Atom                 Charge (a.u.)
  ----------------------------------------
      1 C                    -0.070822
      2 C                    -0.246856
      3 S                    -0.131585
      4 C                    -0.049631
      5 H                     0.195270
      6 C                    -0.049193
      7 C                     0.221400
      8 C                     0.232422
      9 C                    -0.068160
     10 C                    -0.033241
     11 O                    -0.333796
     12 O                    -0.344185
     13 C                    -0.082751
     14 H                     0.120207
     15 H                     0.092309
     16 H                     0.093195
     17 C                    -0.089484
     18 H                     0.124992
     19 H                     0.093929
     20 H                     0.091645
     21 C                    -0.317247
     22 S                    -0.113152
     23 C                     0.154424
     24 H                     0.196197
     25 C                    -0.010473
     26 S                     0.073984
     27 C                    -0.218469
     28 C                    -0.028612
     29 C                    -0.121838
     30 S                    -0.013820
     31 C                    -0.164995
     32 C                     0.408934
     33 F                    -0.208402
     34 C                     0.442602
     35 O                    -0.460745
     36 O                    -0.300465
     37 C                    -0.058918
     38 H                     0.121432
     39 H                     0.095212
     40 H                     0.094968
     41 H                     0.216689
     42 H                     0.119139
     43 H                     0.116818
     44 H                     0.211072
  ----------------------------------------
  Sum of atomic charges =     0.000000

                    Cartesian Multipole Moments
 -----------------------------------------------------------------
    Charge (ESU x 10^10)
                 0.0000
    Dipole Moment (Debye)
         X       0.7954      Y       1.1193      Z       2.6466
       Tot       2.9817
    Quadrupole Moments (Debye-Ang)
        XX    -201.3855     XY       1.9997     YY    -168.4057
        XZ      -3.3879     YZ      -3.2673     ZZ    -188.2276

 Total job time:  324.50s(wall), 10503.89s(cpu)
        *  Thank you very much for using Q-Chem.  Have a nice day.  *
