 Q-Chem 5.4, Q-Chem, Inc., Pleasanton, CA (2021)
 Q-Chem 5.4.0 for Intel X86 EM64T Linux

User input:
--------------------------------------------------------------
$molecule
0 1
C	0.070009	-8.517702	0.313191
C	-0.305494	-7.641575	-0.694746
S	0.614924	-7.638634	1.762350
C	-0.176768	-6.264785	-0.340973
H	-0.669571	-7.966081	-1.677747
C	0.309600	-6.072714	1.000069
C	0.525372	-4.787049	1.520060
C	-0.463825	-5.162801	-1.196466
C	-0.243888	-3.874817	-0.677639
C	0.240312	-3.683952	0.665815
O	-0.941626	-5.499772	-2.426678
O	1.006468	-4.459055	2.755460
C	0.761666	-5.329063	3.853913
H	1.016135	-4.755694	4.765607
H	1.401368	-6.238095	3.822182
H	-0.305161	-5.637262	3.901833
C	-0.868342	-4.572261	-3.502489
H	-1.128551	-5.139743	-4.416005
H	0.154712	-4.153131	-3.613841
H	-1.595605	-3.739531	-3.386756
C	0.369957	-2.306654	1.015430
S	-0.537898	-2.306501	-1.445922
C	0.000000	-1.435185	0.000000
H	0.731088	-1.978138	1.998088
C	0.000000	0.000000	0.000000
S	0.693394	0.581209	1.507541
C	1.897536	1.592607	0.718873
C	0.693330	0.580791	-1.067872
C	1.756758	1.476132	-0.686410
S	0.508573	0.422041	-2.805516
C	1.846879	1.552232	-3.054530
C	2.387897	2.009402	-1.862551
F	3.408741	2.872264	-1.819088
C	2.191300	1.838768	-4.456084
O	1.606694	1.337806	-5.406510
O	3.221062	2.712584	-4.569225
C	3.603677	3.026817	-5.916207
H	4.442623	3.739898	-5.833064
H	2.758956	3.483875	-6.470168
H	3.921969	2.114070	-6.459293
H	2.604650	2.187790	1.306486
H	0.914194	-9.143623	0.000738
H	-0.769424	-9.149441	0.626735
H	1.012272	-1.443175	-0.376353
$end

$rem
JOBTYPE		SP
EXCHANGE	HF
CORRELATION	pRIMP2
BASIS		cc-pvtz
METHOD		rimp2
AUX_BASIS	rimp2-cc-pvtz
SOLVENT_METHOD	PCM
PURECART	11111
SYMMETRY	false
MEM_TOTAL	110000
SCF_CONVERGENCE = 6
THRESH=10
GUI = 2
$end

$solvent
dielectric 4.90
$end
--------------------------------------------------------------

             Standard Nuclear Orientation (Angstroms)
    I     Atom           X                Y                Z
 ----------------------------------------------------------------
    1      C       0.0700090000    -8.5177020000     0.3131910000
    2      C      -0.3054940000    -7.6415750000    -0.6947460000
    3      S       0.6149240000    -7.6386340000     1.7623500000
    4      C      -0.1767680000    -6.2647850000    -0.3409730000
    5      H      -0.6695710000    -7.9660810000    -1.6777470000
    6      C       0.3096000000    -6.0727140000     1.0000690000
    7      C       0.5253720000    -4.7870490000     1.5200600000
    8      C      -0.4638250000    -5.1628010000    -1.1964660000
    9      C      -0.2438880000    -3.8748170000    -0.6776390000
   10      C       0.2403120000    -3.6839520000     0.6658150000
   11      O      -0.9416260000    -5.4997720000    -2.4266780000
   12      O       1.0064680000    -4.4590550000     2.7554600000
   13      C       0.7616660000    -5.3290630000     3.8539130000
   14      H       1.0161350000    -4.7556940000     4.7656070000
   15      H       1.4013680000    -6.2380950000     3.8221820000
   16      H      -0.3051610000    -5.6372620000     3.9018330000
   17      C      -0.8683420000    -4.5722610000    -3.5024890000
   18      H      -1.1285510000    -5.1397430000    -4.4160050000
   19      H       0.1547120000    -4.1531310000    -3.6138410000
   20      H      -1.5956050000    -3.7395310000    -3.3867560000
   21      C       0.3699570000    -2.3066540000     1.0154300000
   22      S      -0.5378980000    -2.3065010000    -1.4459220000
   23      C       0.0000000000    -1.4351850000     0.0000000000
   24      H       0.7310880000    -1.9781380000     1.9980880000
   25      C       0.0000000000     0.0000000000     0.0000000000
   26      S       0.6933940000     0.5812090000     1.5075410000
   27      C       1.8975360000     1.5926070000     0.7188730000
   28      C       0.6933300000     0.5807910000    -1.0678720000
   29      C       1.7567580000     1.4761320000    -0.6864100000
   30      S       0.5085730000     0.4220410000    -2.8055160000
   31      C       1.8468790000     1.5522320000    -3.0545300000
   32      C       2.3878970000     2.0094020000    -1.8625510000
   33      F       3.4087410000     2.8722640000    -1.8190880000
   34      C       2.1913000000     1.8387680000    -4.4560840000
   35      O       1.6066940000     1.3378060000    -5.4065100000
   36      O       3.2210620000     2.7125840000    -4.5692250000
   37      C       3.6036770000     3.0268170000    -5.9162070000
   38      H       4.4426230000     3.7398980000    -5.8330640000
   39      H       2.7589560000     3.4838750000    -6.4701680000
   40      H       3.9219690000     2.1140700000    -6.4592930000
   41      H       2.6046500000     2.1877900000     1.3064860000
   42      H       0.9141940000    -9.1436230000     0.0007380000
   43      H      -0.7694240000    -9.1494410000     0.6267350000
   44      H       1.0122720000    -1.4431750000    -0.3763530000
 ----------------------------------------------------------------

   11   -2755.2887120649      7.71e-07  Convergence criterion met
 Total energy in the final basis set =    -2755.2887120649
        RIMP2         total energy =     -2760.3954711097 a.u.

                    Orbital Energies (a.u.)
 --------------------------------------------------------------

 Alpha MOs
 -- Occupied --
-92.0155 -92.0041 -91.9740 -91.9568 -26.3446 -20.6158 -20.5870 -20.5852
-20.5623 -11.4107 -11.3839 -11.3194 -11.3085 -11.3050 -11.3048 -11.2987
-11.2917 -11.2895 -11.2884 -11.2830 -11.2828 -11.2823 -11.2800 -11.2719
-11.2707 -11.2568 -11.2547 -11.2482 -11.2333  -9.0148  -9.0041  -8.9768
 -8.9595  -6.6955  -6.6947  -6.6944  -6.6850  -6.6842  -6.6832  -6.6579
 -6.6570  -6.6558  -6.6407  -6.6398  -6.6388  -1.6617  -1.4683  -1.4093
 -1.4081  -1.3710  -1.2408  -1.2004  -1.1728  -1.1408  -1.0991  -1.0493
 -1.0444  -1.0276  -1.0016  -0.9953  -0.9667  -0.9558  -0.9489  -0.9421
 -0.8923  -0.8725  -0.8588  -0.8194  -0.7942  -0.7874  -0.7822  -0.7672
 -0.7578  -0.7361  -0.7267  -0.7112  -0.7003  -0.6940  -0.6857  -0.6816
 -0.6748  -0.6677  -0.6547  -0.6478  -0.6369  -0.6309  -0.6186  -0.6149
 -0.6103  -0.6020  -0.5935  -0.5789  -0.5697  -0.5652  -0.5584  -0.5554
 -0.5470  -0.5331  -0.5292  -0.5244  -0.5156  -0.5107  -0.5071  -0.4986
 -0.4846  -0.4815  -0.4778  -0.4736  -0.4706  -0.4624  -0.4576  -0.4452
 -0.4301  -0.3976  -0.3771  -0.3706  -0.3504  -0.3060  -0.2851  -0.2130

          Ground-State Mulliken Net Atomic Charges

     Atom                 Charge (a.u.)
  ----------------------------------------
      1 C                    -0.069407
      2 C                    -0.270090
      3 S                    -0.139711
      4 C                    -0.042123
      5 H                     0.192279
      6 C                    -0.051202
      7 C                     0.222585
      8 C                     0.220688
      9 C                    -0.061333
     10 C                    -0.050635
     11 O                    -0.335406
     12 O                    -0.344671
     13 C                    -0.082758
     14 H                     0.119395
     15 H                     0.092328
     16 H                     0.092981
     17 C                    -0.087664
     18 H                     0.123139
     19 H                     0.092116
     20 H                     0.090188
     21 C                    -0.271822
     22 S                    -0.101311
     23 C                     0.071001
     24 H                     0.200696
     25 C                    -0.100045
     26 S                     0.095938
     27 C                    -0.173025
     28 C                     0.030473
     29 C                    -0.117743
     30 S                     0.039847
     31 C                    -0.159652
     32 C                     0.402273
     33 F                    -0.206274
     34 C                     0.447666
     35 O                    -0.461182
     36 O                    -0.300923
     37 C                    -0.058417
     38 H                     0.121587
     39 H                     0.095311
     40 H                     0.095251
     41 H                     0.219646
     42 H                     0.115966
     43 H                     0.113616
     44 H                     0.190421
  ----------------------------------------
  Sum of atomic charges =     0.000000

                    Cartesian Multipole Moments
 -----------------------------------------------------------------
    Charge (ESU x 10^10)
                 0.0000
    Dipole Moment (Debye)
         X       3.0779      Y       2.8002      Z       2.4076
       Tot       4.8074
    Quadrupole Moments (Debye-Ang)
        XX    -192.3452     XY       9.4858     YY    -189.5894
        XZ      -5.4822     YZ      -1.2020     ZZ    -186.2943

 Total job time:  331.08s(wall), 10732.33s(cpu)
        *  Thank you very much for using Q-Chem.  Have a nice day.  *
