 Q-Chem 5.4, Q-Chem, Inc., Pleasanton, CA (2021)
 Q-Chem 5.4.0 for Intel X86 EM64T Linux

User input:
--------------------------------------------------------------
$molecule
0 1
C	-0.014560	-8.517702	-0.320589
C	0.180211	-7.641575	0.737240
S	-0.299553	-7.638634	-1.842356
C	0.114873	-6.264785	0.366488
H	0.368061	-7.966081	1.768528
C	-0.131236	-6.072714	-1.038637
C	-0.253435	-4.787049	-1.588197
C	0.249014	-5.162801	1.258831
C	0.122513	-3.874817	0.709695
C	-0.121043	-3.683952	-0.697430
O	0.505933	-5.499772	2.553323
O	-0.512697	-4.459055	-2.888369
C	-0.080869	-5.329063	-3.927625
H	-0.173159	-4.755694	-4.869656
H	-0.716363	-6.238095	-4.007459
H	0.978072	-5.637262	-3.789565
C	0.246949	-4.572261	3.600064
H	0.344574	-5.139743	4.544887
H	-0.779898	-4.153131	3.532074
H	0.983261	-3.739531	3.612378
C	-0.188009	-2.306654	-1.064246
S	0.278644	-2.306501	1.517360
C	-0.000000	-1.435185	-0.000000
H	-0.373017	-1.978138	-2.094685
C	0.000000	0.000000	0.000000
S	0.581934	0.692785	1.507541
C	1.592155	1.897915	0.718873
C	0.581944	0.692363	-1.067872
C	1.473741	1.758764	-0.686410
S	0.427560	0.503942	-2.805516
C	1.549278	1.849357	-3.054530
C	2.002690	2.393529	-1.862551
F	2.858191	3.420549	-1.819088
C	1.838710	2.191348	-4.456084
O	1.349977	1.596481	-5.406510
O	2.701091	3.230705	-4.569225
C	3.023327	3.606605	-5.916207
H	3.725703	4.454534	-5.833064
H	2.112072	3.910035	-6.470168
H	3.495281	2.762996	-6.459293
H	2.185174	2.606846	1.306486
H	-0.900177	-9.143623	-0.159475
H	0.866566	-9.149441	-0.483604
H	-1.062246	-1.443175	0.194856
$end

$rem
JOBTYPE		SP
EXCHANGE	HF
CORRELATION	pRIMP2
BASIS		cc-pvtz
METHOD		rimp2
AUX_BASIS	rimp2-cc-pvtz
SOLVENT_METHOD	PCM
PURECART	11111
SYMMETRY	false
MEM_TOTAL	110000
SCF_CONVERGENCE = 6
THRESH=10
GUI = 2
$end

$solvent
dielectric 4.90
$end
--------------------------------------------------------------

             Standard Nuclear Orientation (Angstroms)
    I     Atom           X                Y                Z
 ----------------------------------------------------------------
    1      C      -0.0145600000    -8.5177020000    -0.3205890000
    2      C       0.1802110000    -7.6415750000     0.7372400000
    3      S      -0.2995530000    -7.6386340000    -1.8423560000
    4      C       0.1148730000    -6.2647850000     0.3664880000
    5      H       0.3680610000    -7.9660810000     1.7685280000
    6      C      -0.1312360000    -6.0727140000    -1.0386370000
    7      C      -0.2534350000    -4.7870490000    -1.5881970000
    8      C       0.2490140000    -5.1628010000     1.2588310000
    9      C       0.1225130000    -3.8748170000     0.7096950000
   10      C      -0.1210430000    -3.6839520000    -0.6974300000
   11      O       0.5059330000    -5.4997720000     2.5533230000
   12      O      -0.5126970000    -4.4590550000    -2.8883690000
   13      C      -0.0808690000    -5.3290630000    -3.9276250000
   14      H      -0.1731590000    -4.7556940000    -4.8696560000
   15      H      -0.7163630000    -6.2380950000    -4.0074590000
   16      H       0.9780720000    -5.6372620000    -3.7895650000
   17      C       0.2469490000    -4.5722610000     3.6000640000
   18      H       0.3445740000    -5.1397430000     4.5448870000
   19      H      -0.7798980000    -4.1531310000     3.5320740000
   20      H       0.9832610000    -3.7395310000     3.6123780000
   21      C      -0.1880090000    -2.3066540000    -1.0642460000
   22      S       0.2786440000    -2.3065010000     1.5173600000
   23      C       0.0000000000    -1.4351850000     0.0000000000
   24      H      -0.3730170000    -1.9781380000    -2.0946850000
   25      C       0.0000000000     0.0000000000     0.0000000000
   26      S       0.5819340000     0.6927850000     1.5075410000
   27      C       1.5921550000     1.8979150000     0.7188730000
   28      C       0.5819440000     0.6923630000    -1.0678720000
   29      C       1.4737410000     1.7587640000    -0.6864100000
   30      S       0.4275600000     0.5039420000    -2.8055160000
   31      C       1.5492780000     1.8493570000    -3.0545300000
   32      C       2.0026900000     2.3935290000    -1.8625510000
   33      F       2.8581910000     3.4205490000    -1.8190880000
   34      C       1.8387100000     2.1913480000    -4.4560840000
   35      O       1.3499770000     1.5964810000    -5.4065100000
   36      O       2.7010910000     3.2307050000    -4.5692250000
   37      C       3.0233270000     3.6066050000    -5.9162070000
   38      H       3.7257030000     4.4545340000    -5.8330640000
   39      H       2.1120720000     3.9100350000    -6.4701680000
   40      H       3.4952810000     2.7629960000    -6.4592930000
   41      H       2.1851740000     2.6068460000     1.3064860000
   42      H      -0.9001770000    -9.1436230000    -0.1594750000
   43      H       0.8665660000    -9.1494410000    -0.4836040000
   44      H      -1.0622460000    -1.4431750000     0.1948560000
 ----------------------------------------------------------------

   11   -2755.3031704780      8.63e-07  Convergence criterion met
 Total energy in the final basis set =    -2755.3031704780
        RIMP2         total energy =     -2760.4041064054 a.u.

                    Orbital Energies (a.u.)
 --------------------------------------------------------------

 Alpha MOs
 -- Occupied --
-92.0139 -92.0024 -91.9804 -91.9565 -26.3445 -20.6156 -20.5866 -20.5865
-20.5621 -11.4104 -11.3842 -11.3148 -11.3087 -11.3064 -11.3032 -11.2988
-11.2934 -11.2894 -11.2863 -11.2847 -11.2830 -11.2818 -11.2769 -11.2747
-11.2703 -11.2571 -11.2551 -11.2481 -11.2333  -9.0132  -9.0025  -8.9826
 -8.9591  -6.6940  -6.6932  -6.6928  -6.6834  -6.6827  -6.6816  -6.6636
 -6.6628  -6.6615  -6.6404  -6.6394  -6.6384  -1.6615  -1.4680  -1.4100
 -1.4082  -1.3708  -1.2334  -1.2021  -1.1725  -1.1391  -1.0991  -1.0469
 -1.0457  -1.0258  -1.0031  -0.9968  -0.9642  -0.9596  -0.9478  -0.9406
 -0.8939  -0.8706  -0.8634  -0.8121  -0.8002  -0.7905  -0.7825  -0.7661
 -0.7575  -0.7371  -0.7263  -0.7142  -0.6980  -0.6904  -0.6853  -0.6809
 -0.6746  -0.6618  -0.6563  -0.6481  -0.6387  -0.6307  -0.6185  -0.6140
 -0.6118  -0.6004  -0.5924  -0.5781  -0.5698  -0.5655  -0.5582  -0.5560
 -0.5408  -0.5353  -0.5303  -0.5280  -0.5139  -0.5095  -0.5075  -0.4996
 -0.4861  -0.4822  -0.4765  -0.4745  -0.4702  -0.4658  -0.4559  -0.4453
 -0.4321  -0.3922  -0.3853  -0.3696  -0.3500  -0.3023  -0.2874  -0.2135

          Ground-State Mulliken Net Atomic Charges

     Atom                 Charge (a.u.)
  ----------------------------------------
      1 C                    -0.069535
      2 C                    -0.271360
      3 S                    -0.139403
      4 C                    -0.044078
      5 H                     0.191910
      6 C                    -0.054759
      7 C                     0.228244
      8 C                     0.223116
      9 C                    -0.073492
     10 C                    -0.055215
     11 O                    -0.334583
     12 O                    -0.344762
     13 C                    -0.083108
     14 H                     0.120886
     15 H                     0.092440
     16 H                     0.092765
     17 C                    -0.088742
     18 H                     0.124256
     19 H                     0.092212
     20 H                     0.089302
     21 C                    -0.250240
     22 S                    -0.095586
     23 C                     0.063456
     24 H                     0.200791
     25 C                    -0.079669
     26 S                     0.085728
     27 C                    -0.179354
     28 C                     0.019644
     29 C                    -0.108562
     30 S                     0.016714
     31 C                    -0.162320
     32 C                     0.405974
     33 F                    -0.205645
     34 C                     0.447097
     35 O                    -0.461334
     36 O                    -0.301001
     37 C                    -0.058440
     38 H                     0.121626
     39 H                     0.095205
     40 H                     0.095278
     41 H                     0.219395
     42 H                     0.115834
     43 H                     0.113513
     44 H                     0.205802
  ----------------------------------------
  Sum of atomic charges =     0.000000

                    Cartesian Multipole Moments
 -----------------------------------------------------------------
    Charge (ESU x 10^10)
                -0.0000
    Dipole Moment (Debye)
         X       1.4434      Y       3.0677      Z       3.0939
       Tot       4.5898
    Quadrupole Moments (Debye-Ang)
        XX    -194.5835     XY       7.4836     YY    -186.6344
        XZ      -7.6169     YZ      -9.5768     ZZ    -187.5187

 Total job time:  335.43s(wall), 10407.51s(cpu)
        *  Thank you very much for using Q-Chem.  Have a nice day.  *
