 Q-Chem 5.4, Q-Chem, Inc., Pleasanton, CA (2021)
 Q-Chem 5.4.0 for Intel X86 EM64T Linux

User input:
--------------------------------------------------------------
$molecule
0 1
C	0.123330	-8.517702	0.296276
C	-0.421494	-7.641575	-0.631143
S	0.911611	-7.638634	1.628795
C	-0.233291	-6.264785	-0.305097
H	-0.950737	-7.966081	-1.535988
C	0.478557	-6.072714	0.931114
C	0.781346	-4.787049	1.405737
C	-0.664542	-5.162801	-1.097747
C	-0.357854	-3.874817	-0.624993
C	0.352278	-3.683952	0.613970
O	-1.348709	-5.499772	-2.226300
O	1.469658	-4.459055	2.538827
C	1.419319	-5.329063	3.663102
H	1.828237	-4.755694	4.516756
H	2.043793	-6.238095	3.520769
H	0.377021	-5.637262	3.895546
C	-1.463351	-4.572261	-3.298492
H	-1.878237	-5.139743	-4.152945
H	-0.475176	-4.153131	-3.585804
H	-2.159469	-3.739531	-3.058230
C	0.540664	-2.306654	0.935761
S	-0.780808	-2.306501	-1.330550
C	0.000000	-1.435185	0.000000
H	1.066946	-1.978138	1.840780
C	0.000000	0.000000	0.000000
S	0.693394	0.581209	1.507541
C	1.897536	1.592607	0.718873
C	0.693330	0.580791	-1.067872
C	1.756758	1.476132	-0.686410
S	0.508573	0.422041	-2.805516
C	1.846879	1.552232	-3.054530
C	2.387897	2.009402	-1.862551
F	3.408741	2.872264	-1.819088
C	2.191300	1.838768	-4.456084
O	1.606694	1.337806	-5.406510
O	3.221062	2.712584	-4.569225
C	3.603677	3.026817	-5.916207
H	4.442623	3.739898	-5.833064
H	2.758956	3.483875	-6.470168
H	3.921969	2.114070	-6.459293
H	2.604650	2.187790	1.306486
H	0.900433	-9.143623	-0.158021
H	-0.648903	-9.149441	0.750822
H	0.931540	-1.443175	-0.546415
$end

$rem
JOBTYPE		SP
EXCHANGE	HF
CORRELATION	pRIMP2
BASIS		cc-pvtz
METHOD		rimp2
AUX_BASIS	rimp2-cc-pvtz
SOLVENT_METHOD	PCM
PURECART	11111
SYMMETRY	false
MEM_TOTAL	110000
SCF_CONVERGENCE = 6
THRESH=10
GUI = 2
$end

$solvent
dielectric 4.90
$end
--------------------------------------------------------------

             Standard Nuclear Orientation (Angstroms)
    I     Atom           X                Y                Z
 ----------------------------------------------------------------
    1      C       0.1233300000    -8.5177020000     0.2962760000
    2      C      -0.4214940000    -7.6415750000    -0.6311430000
    3      S       0.9116110000    -7.6386340000     1.6287950000
    4      C      -0.2332910000    -6.2647850000    -0.3050970000
    5      H      -0.9507370000    -7.9660810000    -1.5359880000
    6      C       0.4785570000    -6.0727140000     0.9311140000
    7      C       0.7813460000    -4.7870490000     1.4057370000
    8      C      -0.6645420000    -5.1628010000    -1.0977470000
    9      C      -0.3578540000    -3.8748170000    -0.6249930000
   10      C       0.3522780000    -3.6839520000     0.6139700000
   11      O      -1.3487090000    -5.4997720000    -2.2263000000
   12      O       1.4696580000    -4.4590550000     2.5388270000
   13      C       1.4193190000    -5.3290630000     3.6631020000
   14      H       1.8282370000    -4.7556940000     4.5167560000
   15      H       2.0437930000    -6.2380950000     3.5207690000
   16      H       0.3770210000    -5.6372620000     3.8955460000
   17      C      -1.4633510000    -4.5722610000    -3.2984920000
   18      H      -1.8782370000    -5.1397430000    -4.1529450000
   19      H      -0.4751760000    -4.1531310000    -3.5858040000
   20      H      -2.1594690000    -3.7395310000    -3.0582300000
   21      C       0.5406640000    -2.3066540000     0.9357610000
   22      S      -0.7808080000    -2.3065010000    -1.3305500000
   23      C       0.0000000000    -1.4351850000     0.0000000000
   24      H       1.0669460000    -1.9781380000     1.8407800000
   25      C       0.0000000000     0.0000000000     0.0000000000
   26      S       0.6933940000     0.5812090000     1.5075410000
   27      C       1.8975360000     1.5926070000     0.7188730000
   28      C       0.6933300000     0.5807910000    -1.0678720000
   29      C       1.7567580000     1.4761320000    -0.6864100000
   30      S       0.5085730000     0.4220410000    -2.8055160000
   31      C       1.8468790000     1.5522320000    -3.0545300000
   32      C       2.3878970000     2.0094020000    -1.8625510000
   33      F       3.4087410000     2.8722640000    -1.8190880000
   34      C       2.1913000000     1.8387680000    -4.4560840000
   35      O       1.6066940000     1.3378060000    -5.4065100000
   36      O       3.2210620000     2.7125840000    -4.5692250000
   37      C       3.6036770000     3.0268170000    -5.9162070000
   38      H       4.4426230000     3.7398980000    -5.8330640000
   39      H       2.7589560000     3.4838750000    -6.4701680000
   40      H       3.9219690000     2.1140700000    -6.4592930000
   41      H       2.6046500000     2.1877900000     1.3064860000
   42      H       0.9004330000    -9.1436230000    -0.1580210000
   43      H      -0.6489030000    -9.1494410000     0.7508220000
   44      H       0.9315400000    -1.4431750000    -0.5464150000
 ----------------------------------------------------------------

   11   -2755.2886968965      7.99e-07  Convergence criterion met
 Total energy in the final basis set =    -2755.2886968965
        RIMP2         total energy =     -2760.3946679484 a.u.

                    Orbital Energies (a.u.)
 --------------------------------------------------------------

 Alpha MOs
 -- Occupied --
-92.0166 -92.0061 -91.9735 -91.9563 -26.3453 -20.6159 -20.5869 -20.5847
-20.5624 -11.4108 -11.3851 -11.3210 -11.3083 -11.3070 -11.3038 -11.2989
-11.2899 -11.2896 -11.2886 -11.2827 -11.2827 -11.2819 -11.2786 -11.2726
-11.2700 -11.2563 -11.2536 -11.2476 -11.2319  -9.0157  -9.0059  -8.9762
 -8.9589  -6.6964  -6.6957  -6.6954  -6.6868  -6.6861  -6.6850  -6.6574
 -6.6565  -6.6552  -6.6402  -6.6393  -6.6382  -1.6624  -1.4684  -1.4091
 -1.4076  -1.3711  -1.2409  -1.2004  -1.1723  -1.1408  -1.0991  -1.0494
 -1.0441  -1.0277  -1.0013  -0.9952  -0.9668  -0.9560  -0.9485  -0.9419
 -0.8918  -0.8730  -0.8587  -0.8196  -0.7947  -0.7871  -0.7824  -0.7667
 -0.7582  -0.7355  -0.7273  -0.7113  -0.7015  -0.6935  -0.6859  -0.6811
 -0.6750  -0.6680  -0.6544  -0.6476  -0.6365  -0.6307  -0.6181  -0.6149
 -0.6101  -0.6021  -0.5935  -0.5785  -0.5697  -0.5642  -0.5580  -0.5555
 -0.5479  -0.5328  -0.5284  -0.5237  -0.5145  -0.5104  -0.5069  -0.4983
 -0.4851  -0.4822  -0.4774  -0.4738  -0.4712  -0.4628  -0.4577  -0.4445
 -0.4296  -0.3972  -0.3777  -0.3701  -0.3496  -0.3069  -0.2856  -0.2128

          Ground-State Mulliken Net Atomic Charges

     Atom                 Charge (a.u.)
  ----------------------------------------
      1 C                    -0.069140
      2 C                    -0.274153
      3 S                    -0.141015
      4 C                    -0.040745
      5 H                     0.191752
      6 C                    -0.052431
      7 C                     0.223986
      8 C                     0.219166
      9 C                    -0.061305
     10 C                    -0.056285
     11 O                    -0.335606
     12 O                    -0.344786
     13 C                    -0.082607
     14 H                     0.119266
     15 H                     0.092275
     16 H                     0.092936
     17 C                    -0.087685
     18 H                     0.122757
     19 H                     0.092094
     20 H                     0.090004
     21 C                    -0.265774
     22 S                    -0.098055
     23 C                     0.061673
     24 H                     0.202540
     25 C                    -0.107300
     26 S                     0.099836
     27 C                    -0.168229
     28 C                     0.030304
     29 C                    -0.115279
     30 S                     0.044130
     31 C                    -0.158010
     32 C                     0.400959
     33 F                    -0.205572
     34 C                     0.447598
     35 O                    -0.461322
     36 O                    -0.301058
     37 C                    -0.058357
     38 H                     0.121605
     39 H                     0.095322
     40 H                     0.095315
     41 H                     0.219874
     42 H                     0.115473
     43 H                     0.113056
     44 H                     0.192791
  ----------------------------------------
  Sum of atomic charges =     0.000000

                    Cartesian Multipole Moments
 -----------------------------------------------------------------
    Charge (ESU x 10^10)
                -0.0000
    Dipole Moment (Debye)
         X       3.1247      Y       3.2046      Z       2.3882
       Tot       5.0731
    Quadrupole Moments (Debye-Ang)
        XX    -191.5909     XY      10.0830     YY    -191.7391
        XZ      -2.3525     YZ      -1.7441     ZZ    -186.9483

 Total job time:  330.78s(wall), 10718.00s(cpu)
        *  Thank you very much for using Q-Chem.  Have a nice day.  *
