 Q-Chem 5.4, Q-Chem, Inc., Pleasanton, CA (2021)
 Q-Chem 5.4.0 for Intel X86 EM64T Linux

User input:
--------------------------------------------------------------
$molecule
0 1
C	0.320589	-8.517702	-0.014560
C	-0.737240	-7.641575	0.180211
S	1.842356	-7.638634	-0.299553
C	-0.366488	-6.264785	0.114873
H	-1.768528	-7.966081	0.368061
C	1.038637	-6.072714	-0.131236
C	1.588197	-4.787049	-0.253435
C	-1.258831	-5.162801	0.249014
C	-0.709695	-3.874817	0.122513
C	0.697430	-3.683952	-0.121043
O	-2.553323	-5.499772	0.505933
O	2.888369	-4.459055	-0.512697
C	3.927625	-5.329063	-0.080869
H	4.869656	-4.755694	-0.173159
H	4.007459	-6.238095	-0.716363
H	3.789565	-5.637262	0.978072
C	-3.600064	-4.572261	0.246949
H	-4.544887	-5.139743	0.344574
H	-3.532074	-4.153131	-0.779898
H	-3.612378	-3.739531	0.983261
C	1.064246	-2.306654	-0.188009
S	-1.517360	-2.306501	0.278644
C	-0.000000	-1.435185	-0.000000
H	2.094685	-1.978138	-0.373017
C	0.000000	0.000000	0.000000
S	0.783786	0.451972	1.507541
C	2.145261	1.238908	0.718873
C	0.783650	0.451572	-1.067872
C	1.986396	1.148648	-0.686410
S	0.574133	0.327317	-2.805516
C	2.088363	1.207943	-3.054530
C	2.700548	1.564221	-1.862551
F	3.855718	2.236706	-1.819088
C	2.477307	1.430318	-4.456084
O	1.814592	1.038482	-5.406510
O	3.643162	2.112042	-4.569225
C	4.074530	2.355061	-5.916207
H	5.024556	2.911627	-5.833064
H	3.322010	2.951860	-6.470168
H	4.229490	1.400910	-6.459293
H	2.944986	1.702260	1.306486
H	0.159475	-9.143623	-0.900177
H	0.483604	-9.149441	0.866566
H	-0.194856	-1.443175	-1.062246
$end

$rem
JOBTYPE		SP
EXCHANGE	HF
CORRELATION	pRIMP2
BASIS		cc-pvtz
METHOD		rimp2
AUX_BASIS	rimp2-cc-pvtz
SOLVENT_METHOD	PCM
PURECART	11111
SYMMETRY	false
MEM_TOTAL	110000
SCF_CONVERGENCE = 6
THRESH=10
GUI = 2
$end

$solvent
dielectric 4.90
$end
--------------------------------------------------------------

             Standard Nuclear Orientation (Angstroms)
    I     Atom           X                Y                Z
 ----------------------------------------------------------------
    1      C       0.3205890000    -8.5177020000    -0.0145600000
    2      C      -0.7372400000    -7.6415750000     0.1802110000
    3      S       1.8423560000    -7.6386340000    -0.2995530000
    4      C      -0.3664880000    -6.2647850000     0.1148730000
    5      H      -1.7685280000    -7.9660810000     0.3680610000
    6      C       1.0386370000    -6.0727140000    -0.1312360000
    7      C       1.5881970000    -4.7870490000    -0.2534350000
    8      C      -1.2588310000    -5.1628010000     0.2490140000
    9      C      -0.7096950000    -3.8748170000     0.1225130000
   10      C       0.6974300000    -3.6839520000    -0.1210430000
   11      O      -2.5533230000    -5.4997720000     0.5059330000
   12      O       2.8883690000    -4.4590550000    -0.5126970000
   13      C       3.9276250000    -5.3290630000    -0.0808690000
   14      H       4.8696560000    -4.7556940000    -0.1731590000
   15      H       4.0074590000    -6.2380950000    -0.7163630000
   16      H       3.7895650000    -5.6372620000     0.9780720000
   17      C      -3.6000640000    -4.5722610000     0.2469490000
   18      H      -4.5448870000    -5.1397430000     0.3445740000
   19      H      -3.5320740000    -4.1531310000    -0.7798980000
   20      H      -3.6123780000    -3.7395310000     0.9832610000
   21      C       1.0642460000    -2.3066540000    -0.1880090000
   22      S      -1.5173600000    -2.3065010000     0.2786440000
   23      C       0.0000000000    -1.4351850000     0.0000000000
   24      H       2.0946850000    -1.9781380000    -0.3730170000
   25      C       0.0000000000     0.0000000000     0.0000000000
   26      S       0.7837860000     0.4519720000     1.5075410000
   27      C       2.1452610000     1.2389080000     0.7188730000
   28      C       0.7836500000     0.4515720000    -1.0678720000
   29      C       1.9863960000     1.1486480000    -0.6864100000
   30      S       0.5741330000     0.3273170000    -2.8055160000
   31      C       2.0883630000     1.2079430000    -3.0545300000
   32      C       2.7005480000     1.5642210000    -1.8625510000
   33      F       3.8557180000     2.2367060000    -1.8190880000
   34      C       2.4773070000     1.4303180000    -4.4560840000
   35      O       1.8145920000     1.0384820000    -5.4065100000
   36      O       3.6431620000     2.1120420000    -4.5692250000
   37      C       4.0745300000     2.3550610000    -5.9162070000
   38      H       5.0245560000     2.9116270000    -5.8330640000
   39      H       3.3220100000     2.9518600000    -6.4701680000
   40      H       4.2294900000     1.4009100000    -6.4592930000
   41      H       2.9449860000     1.7022600000     1.3064860000
   42      H       0.1594750000    -9.1436230000    -0.9001770000
   43      H       0.4836040000    -9.1494410000     0.8665660000
   44      H      -0.1948560000    -1.4431750000    -1.0622460000
 ----------------------------------------------------------------

   11   -2755.2830569900      6.91e-07  Convergence criterion met
 Total energy in the final basis set =    -2755.2830569900
        RIMP2         total energy =     -2760.3845546266 a.u.

                    Orbital Energies (a.u.)
 --------------------------------------------------------------

 Alpha MOs
 -- Occupied --
-92.0130 -92.0097 -91.9668 -91.9566 -26.3484 -20.6168 -20.5864 -20.5836
-20.5634 -11.4122 -11.3899 -11.3371 -11.3233 -11.3074 -11.3018 -11.3011
-11.2902 -11.2902 -11.2825 -11.2818 -11.2783 -11.2723 -11.2707 -11.2696
-11.2679 -11.2558 -11.2544 -11.2479 -11.2329  -9.0127  -9.0096  -8.9693
 -8.9592  -6.6936  -6.6928  -6.6918  -6.6902  -6.6893  -6.6891  -6.6504
 -6.6495  -6.6483  -6.6405  -6.6395  -6.6385  -1.6653  -1.4694  -1.4085
 -1.4066  -1.3721  -1.2436  -1.1989  -1.1719  -1.1421  -1.0998  -1.0518
 -1.0427  -1.0281  -1.0003  -0.9939  -0.9659  -0.9585  -0.9484  -0.9416
 -0.8903  -0.8746  -0.8588  -0.8178  -0.7985  -0.7900  -0.7813  -0.7662
 -0.7607  -0.7339  -0.7299  -0.7148  -0.7017  -0.6929  -0.6870  -0.6791
 -0.6759  -0.6675  -0.6540  -0.6469  -0.6380  -0.6290  -0.6183  -0.6149
 -0.6103  -0.6027  -0.5927  -0.5757  -0.5718  -0.5656  -0.5558  -0.5547
 -0.5450  -0.5326  -0.5265  -0.5193  -0.5137  -0.5097  -0.5053  -0.4991
 -0.4874  -0.4823  -0.4771  -0.4745  -0.4670  -0.4648  -0.4556  -0.4433
 -0.4149  -0.3975  -0.3808  -0.3681  -0.3518  -0.3156  -0.2858  -0.2172

          Ground-State Mulliken Net Atomic Charges

     Atom                 Charge (a.u.)
  ----------------------------------------
      1 C                    -0.069432
      2 C                    -0.270885
      3 S                    -0.139184
      4 C                    -0.040211
      5 H                     0.192104
      6 C                    -0.050792
      7 C                     0.221046
      8 C                     0.219083
      9 C                    -0.074635
     10 C                    -0.053313
     11 O                    -0.336601
     12 O                    -0.344520
     13 C                    -0.082846
     14 H                     0.119010
     15 H                     0.092351
     16 H                     0.092552
     17 C                    -0.086296
     18 H                     0.122178
     19 H                     0.091218
     20 H                     0.090450
     21 C                    -0.257724
     22 S                    -0.112689
     23 C                     0.073853
     24 H                     0.206461
     25 C                    -0.199100
     26 S                     0.099149
     27 C                    -0.109572
     28 C                     0.053734
     29 C                    -0.119543
     30 S                     0.057286
     31 C                    -0.153902
     32 C                     0.403933
     33 F                    -0.202919
     34 C                     0.448834
     35 O                    -0.461336
     36 O                    -0.301285
     37 C                    -0.058023
     38 H                     0.121791
     39 H                     0.095509
     40 H                     0.095666
     41 H                     0.221292
     42 H                     0.116014
     43 H                     0.113506
     44 H                     0.177786
  ----------------------------------------
  Sum of atomic charges =     0.000000

                    Cartesian Multipole Moments
 -----------------------------------------------------------------
    Charge (ESU x 10^10)
                 0.0000
    Dipole Moment (Debye)
         X       3.7636      Y       3.3702      Z       1.8154
       Tot       5.3683
    Quadrupole Moments (Debye-Ang)
        XX    -170.7576     XY      11.1788     YY    -192.5627
        XZ      -3.5533     YZ      -4.5218     ZZ    -203.5240

 Total job time:  335.40s(wall), 10928.91s(cpu)
        *  Thank you very much for using Q-Chem.  Have a nice day.  *
