 Q-Chem 5.4, Q-Chem, Inc., Pleasanton, CA (2021)
 Q-Chem 5.4.0 for Intel X86 EM64T Linux

User input:
--------------------------------------------------------------
$molecule
0 1
C	0.194917	-8.517702	-0.254945
C	-0.335839	-7.641575	0.680596
S	0.954772	-7.638634	-1.603876
C	-0.147576	-6.264785	0.354585
H	-0.854836	-7.966081	1.591356
C	0.567090	-6.072714	-0.879999
C	0.826731	-4.787049	-1.379534
C	-0.618405	-5.162801	1.124384
C	-0.362333	-3.874817	0.622407
C	0.355575	-3.683952	-0.612067
O	-1.253677	-5.499772	2.281166
O	1.463859	-4.459055	-2.542174
C	2.462679	-5.329063	-3.060718
H	2.997507	-4.755694	-3.841678
H	2.027179	-6.238095	-3.530361
H	3.185132	-5.637262	-2.274283
C	-2.124902	-4.572261	2.916545
H	-2.657438	-5.139743	3.703073
H	-2.867810	-4.153131	2.204417
H	-1.568770	-3.739531	3.399269
C	0.540061	-2.306654	-0.936109
S	-0.761887	-2.306501	1.341474
C	-0.000000	-1.435185	-0.000000
H	1.060690	-1.978138	-1.844392
C	0.000000	0.000000	0.000000
S	0.581934	0.692785	1.507541
C	1.592155	1.897915	0.718873
C	0.581944	0.692363	-1.067872
C	1.473741	1.758764	-0.686410
S	0.427560	0.503942	-2.805516
C	1.549278	1.849357	-3.054530
C	2.002690	2.393529	-1.862551
F	2.858191	3.420549	-1.819088
C	1.838710	2.191348	-4.456084
O	1.349977	1.596481	-5.406510
O	2.701091	3.230705	-4.569225
C	3.023327	3.606605	-5.916207
H	3.725703	4.454534	-5.833064
H	2.112072	3.910035	-6.470168
H	3.495281	2.762996	-6.459293
H	2.185174	2.606846	1.306486
H	-0.587067	-9.143623	-0.700788
H	0.974683	-9.149441	0.186556
H	-0.938979	-1.443175	-0.533530
$end

$rem
JOBTYPE		SP
EXCHANGE	HF
CORRELATION	pRIMP2
BASIS		cc-pvtz
METHOD		rimp2
AUX_BASIS	rimp2-cc-pvtz
SOLVENT_METHOD	PCM
PURECART	11111
SYMMETRY	false
MEM_TOTAL	110000
SCF_CONVERGENCE = 6
THRESH=10
GUI = 2
$end

$solvent
dielectric 4.90
$end
--------------------------------------------------------------

             Standard Nuclear Orientation (Angstroms)
    I     Atom           X                Y                Z
 ----------------------------------------------------------------
    1      C       0.1949170000    -8.5177020000    -0.2549450000
    2      C      -0.3358390000    -7.6415750000     0.6805960000
    3      S       0.9547720000    -7.6386340000    -1.6038760000
    4      C      -0.1475760000    -6.2647850000     0.3545850000
    5      H      -0.8548360000    -7.9660810000     1.5913560000
    6      C       0.5670900000    -6.0727140000    -0.8799990000
    7      C       0.8267310000    -4.7870490000    -1.3795340000
    8      C      -0.6184050000    -5.1628010000     1.1243840000
    9      C      -0.3623330000    -3.8748170000     0.6224070000
   10      C       0.3555750000    -3.6839520000    -0.6120670000
   11      O      -1.2536770000    -5.4997720000     2.2811660000
   12      O       1.4638590000    -4.4590550000    -2.5421740000
   13      C       2.4626790000    -5.3290630000    -3.0607180000
   14      H       2.9975070000    -4.7556940000    -3.8416780000
   15      H       2.0271790000    -6.2380950000    -3.5303610000
   16      H       3.1851320000    -5.6372620000    -2.2742830000
   17      C      -2.1249020000    -4.5722610000     2.9165450000
   18      H      -2.6574380000    -5.1397430000     3.7030730000
   19      H      -2.8678100000    -4.1531310000     2.2044170000
   20      H      -1.5687700000    -3.7395310000     3.3992690000
   21      C       0.5400610000    -2.3066540000    -0.9361090000
   22      S      -0.7618870000    -2.3065010000     1.3414740000
   23      C       0.0000000000    -1.4351850000     0.0000000000
   24      H       1.0606900000    -1.9781380000    -1.8443920000
   25      C       0.0000000000     0.0000000000     0.0000000000
   26      S       0.5819340000     0.6927850000     1.5075410000
   27      C       1.5921550000     1.8979150000     0.7188730000
   28      C       0.5819440000     0.6923630000    -1.0678720000
   29      C       1.4737410000     1.7587640000    -0.6864100000
   30      S       0.4275600000     0.5039420000    -2.8055160000
   31      C       1.5492780000     1.8493570000    -3.0545300000
   32      C       2.0026900000     2.3935290000    -1.8625510000
   33      F       2.8581910000     3.4205490000    -1.8190880000
   34      C       1.8387100000     2.1913480000    -4.4560840000
   35      O       1.3499770000     1.5964810000    -5.4065100000
   36      O       2.7010910000     3.2307050000    -4.5692250000
   37      C       3.0233270000     3.6066050000    -5.9162070000
   38      H       3.7257030000     4.4545340000    -5.8330640000
   39      H       2.1120720000     3.9100350000    -6.4701680000
   40      H       3.4952810000     2.7629960000    -6.4592930000
   41      H       2.1851740000     2.6068460000     1.3064860000
   42      H      -0.5870670000    -9.1436230000    -0.7007880000
   43      H       0.9746830000    -9.1494410000     0.1865560000
   44      H      -0.9389790000    -1.4431750000    -0.5335300000
 ----------------------------------------------------------------

   11   -2755.3102801616      7.54e-07  Convergence criterion met
 Total energy in the final basis set =    -2755.3102801616
        RIMP2         total energy =     -2760.4095626435 a.u.

                    Orbital Energies (a.u.)
 --------------------------------------------------------------

 Alpha MOs
 -- Occupied --
-92.0110 -92.0035 -91.9788 -91.9569 -26.3452 -20.6158 -20.5865 -20.5865
-20.5623 -11.4107 -11.3850 -11.3162 -11.3087 -11.3067 -11.3064 -11.2992
-11.2927 -11.2895 -11.2871 -11.2844 -11.2833 -11.2821 -11.2775 -11.2723
-11.2709 -11.2573 -11.2554 -11.2484 -11.2342  -9.0103  -9.0036  -8.9810
 -8.9595  -6.6910  -6.6902  -6.6898  -6.6846  -6.6838  -6.6828  -6.6621
 -6.6613  -6.6600  -6.6407  -6.6398  -6.6388  -1.6622  -1.4683  -1.4099
 -1.4083  -1.3710  -1.2338  -1.2019  -1.1726  -1.1388  -1.0998  -1.0479
 -1.0453  -1.0252  -1.0025  -0.9969  -0.9637  -0.9594  -0.9482  -0.9415
 -0.8933  -0.8714  -0.8628  -0.8114  -0.8001  -0.7908  -0.7829  -0.7663
 -0.7585  -0.7362  -0.7269  -0.7114  -0.6992  -0.6938  -0.6857  -0.6808
 -0.6748  -0.6638  -0.6558  -0.6481  -0.6377  -0.6305  -0.6189  -0.6144
 -0.6120  -0.6004  -0.5929  -0.5780  -0.5713  -0.5660  -0.5580  -0.5563
 -0.5406  -0.5326  -0.5300  -0.5260  -0.5120  -0.5100  -0.5072  -0.5009
 -0.4856  -0.4819  -0.4771  -0.4745  -0.4695  -0.4650  -0.4588  -0.4456
 -0.4288  -0.3952  -0.3835  -0.3690  -0.3511  -0.3028  -0.2879  -0.2157

          Ground-State Mulliken Net Atomic Charges

     Atom                 Charge (a.u.)
  ----------------------------------------
      1 C                    -0.069687
      2 C                    -0.268571
      3 S                    -0.138543
      4 C                    -0.045070
      5 H                     0.192260
      6 C                    -0.053773
      7 C                     0.225246
      8 C                     0.228737
      9 C                    -0.070541
     10 C                    -0.046328
     11 O                    -0.334875
     12 O                    -0.343399
     13 C                    -0.082943
     14 H                     0.120351
     15 H                     0.092363
     16 H                     0.092548
     17 C                    -0.087525
     18 H                     0.124121
     19 H                     0.092479
     20 H                     0.089552
     21 C                    -0.297935
     22 S                    -0.099772
     23 C                     0.094598
     24 H                     0.209381
     25 C                    -0.083402
     26 S                     0.100996
     27 C                    -0.181578
     28 C                    -0.030491
     29 C                    -0.085205
     30 S                     0.028095
     31 C                    -0.156897
     32 C                     0.400333
     33 F                    -0.205476
     34 C                     0.445790
     35 O                    -0.461182
     36 O                    -0.300960
     37 C                    -0.058321
     38 H                     0.121652
     39 H                     0.095360
     40 H                     0.095214
     41 H                     0.216990
     42 H                     0.116241
     43 H                     0.113857
     44 H                     0.206310
  ----------------------------------------
  Sum of atomic charges =     0.000000

                    Cartesian Multipole Moments
 -----------------------------------------------------------------
    Charge (ESU x 10^10)
                 0.0000
    Dipole Moment (Debye)
         X       1.4831      Y       2.9741      Z       2.5031
       Tot       4.1606
    Quadrupole Moments (Debye-Ang)
        XX    -184.4739     XY      10.1228     YY    -185.1284
        XZ     -14.0545     YZ      -9.1109     ZZ    -197.7338

 Total job time:  335.79s(wall), 10758.84s(cpu)
        *  Thank you very much for using Q-Chem.  Have a nice day.  *
