 Q-Chem 5.4, Q-Chem, Inc., Pleasanton, CA (2021)
 Q-Chem 5.4.0 for Intel X86 EM64T Linux

User input:
--------------------------------------------------------------
$molecule
0 1
C	-0.313191	-8.517702	0.070009
C	0.694746	-7.641575	-0.305494
S	-1.762350	-7.638634	0.614924
C	0.340973	-6.264785	-0.176768
H	1.677747	-7.966081	-0.669571
C	-1.000069	-6.072714	0.309600
C	-1.520060	-4.787049	0.525372
C	1.196466	-5.162801	-0.463825
C	0.677639	-3.874817	-0.243888
C	-0.665815	-3.683952	0.240312
O	2.426678	-5.499772	-0.941626
O	-2.755460	-4.459055	1.006468
C	-3.853913	-5.329063	0.761666
H	-4.765607	-4.755694	1.016135
H	-3.822182	-6.238095	1.401368
H	-3.901833	-5.637262	-0.305161
C	3.502489	-4.572261	-0.868342
H	4.416005	-5.139743	-1.128551
H	3.613841	-4.153131	0.154712
H	3.386756	-3.739531	-1.595605
C	-1.015430	-2.306654	0.369957
S	1.445922	-2.306501	-0.537898
C	-0.000000	-1.435185	-0.000000
H	-1.998088	-1.978138	0.731088
C	0.000000	0.000000	0.000000
S	0.581934	0.692785	1.507541
C	1.592155	1.897915	0.718873
C	0.581944	0.692363	-1.067872
C	1.473741	1.758764	-0.686410
S	0.427560	0.503942	-2.805516
C	1.549278	1.849357	-3.054530
C	2.002690	2.393529	-1.862551
F	2.858191	3.420549	-1.819088
C	1.838710	2.191348	-4.456084
O	1.349977	1.596481	-5.406510
O	2.701091	3.230705	-4.569225
C	3.023327	3.606605	-5.916207
H	3.725703	4.454534	-5.833064
H	2.112072	3.910035	-6.470168
H	3.495281	2.762996	-6.459293
H	2.185174	2.606846	1.306486
H	-0.000738	-9.143623	0.914194
H	-0.626735	-9.149441	-0.769424
H	0.376353	-1.443175	1.012272
$end

$rem
JOBTYPE		SP
EXCHANGE	HF
CORRELATION	pRIMP2
BASIS		cc-pvtz
METHOD		rimp2
AUX_BASIS	rimp2-cc-pvtz
SOLVENT_METHOD	PCM
PURECART	11111
SYMMETRY	false
MEM_TOTAL	110000
SCF_CONVERGENCE = 6
THRESH=10
GUI = 2
$end

$solvent
dielectric 4.90
$end
--------------------------------------------------------------

             Standard Nuclear Orientation (Angstroms)
    I     Atom           X                Y                Z
 ----------------------------------------------------------------
    1      C      -0.3131910000    -8.5177020000     0.0700090000
    2      C       0.6947460000    -7.6415750000    -0.3054940000
    3      S      -1.7623500000    -7.6386340000     0.6149240000
    4      C       0.3409730000    -6.2647850000    -0.1767680000
    5      H       1.6777470000    -7.9660810000    -0.6695710000
    6      C      -1.0000690000    -6.0727140000     0.3096000000
    7      C      -1.5200600000    -4.7870490000     0.5253720000
    8      C       1.1964660000    -5.1628010000    -0.4638250000
    9      C       0.6776390000    -3.8748170000    -0.2438880000
   10      C      -0.6658150000    -3.6839520000     0.2403120000
   11      O       2.4266780000    -5.4997720000    -0.9416260000
   12      O      -2.7554600000    -4.4590550000     1.0064680000
   13      C      -3.8539130000    -5.3290630000     0.7616660000
   14      H      -4.7656070000    -4.7556940000     1.0161350000
   15      H      -3.8221820000    -6.2380950000     1.4013680000
   16      H      -3.9018330000    -5.6372620000    -0.3051610000
   17      C       3.5024890000    -4.5722610000    -0.8683420000
   18      H       4.4160050000    -5.1397430000    -1.1285510000
   19      H       3.6138410000    -4.1531310000     0.1547120000
   20      H       3.3867560000    -3.7395310000    -1.5956050000
   21      C      -1.0154300000    -2.3066540000     0.3699570000
   22      S       1.4459220000    -2.3065010000    -0.5378980000
   23      C       0.0000000000    -1.4351850000     0.0000000000
   24      H      -1.9980880000    -1.9781380000     0.7310880000
   25      C       0.0000000000     0.0000000000     0.0000000000
   26      S       0.5819340000     0.6927850000     1.5075410000
   27      C       1.5921550000     1.8979150000     0.7188730000
   28      C       0.5819440000     0.6923630000    -1.0678720000
   29      C       1.4737410000     1.7587640000    -0.6864100000
   30      S       0.4275600000     0.5039420000    -2.8055160000
   31      C       1.5492780000     1.8493570000    -3.0545300000
   32      C       2.0026900000     2.3935290000    -1.8625510000
   33      F       2.8581910000     3.4205490000    -1.8190880000
   34      C       1.8387100000     2.1913480000    -4.4560840000
   35      O       1.3499770000     1.5964810000    -5.4065100000
   36      O       2.7010910000     3.2307050000    -4.5692250000
   37      C       3.0233270000     3.6066050000    -5.9162070000
   38      H       3.7257030000     4.4545340000    -5.8330640000
   39      H       2.1120720000     3.9100350000    -6.4701680000
   40      H       3.4952810000     2.7629960000    -6.4592930000
   41      H       2.1851740000     2.6068460000     1.3064860000
   42      H      -0.0007380000    -9.1436230000     0.9141940000
   43      H      -0.6267350000    -9.1494410000    -0.7694240000
   44      H       0.3763530000    -1.4431750000     1.0122720000
 ----------------------------------------------------------------

   11   -2755.3127039418      7.59e-07  Convergence criterion met
 Total energy in the final basis set =    -2755.3127039418
        RIMP2         total energy =     -2760.4071366715 a.u.

                    Orbital Energies (a.u.)
 --------------------------------------------------------------

 Alpha MOs
 -- Occupied --
-92.0141 -92.0025 -91.9753 -91.9559 -26.3450 -20.6153 -20.5864 -20.5849
-20.5618 -11.4101 -11.3849 -11.3229 -11.3080 -11.3078 -11.3039 -11.2984
-11.2892 -11.2882 -11.2867 -11.2834 -11.2821 -11.2812 -11.2748 -11.2698
-11.2694 -11.2562 -11.2524 -11.2475 -11.2320  -9.0137  -9.0025  -8.9775
 -8.9586  -6.6944  -6.6936  -6.6932  -6.6834  -6.6827  -6.6816  -6.6586
 -6.6578  -6.6565  -6.6398  -6.6389  -6.6379  -1.6620  -1.4678  -1.4088
 -1.4077  -1.3705  -1.2347  -1.2008  -1.1718  -1.1398  -1.0977  -1.0473
 -1.0432  -1.0271  -1.0020  -0.9944  -0.9650  -0.9578  -0.9473  -0.9405
 -0.8918  -0.8706  -0.8621  -0.8178  -0.7961  -0.7881  -0.7828  -0.7663
 -0.7571  -0.7380  -0.7268  -0.7173  -0.6958  -0.6880  -0.6851  -0.6787
 -0.6744  -0.6614  -0.6549  -0.6475  -0.6347  -0.6296  -0.6179  -0.6143
 -0.6108  -0.6007  -0.5909  -0.5743  -0.5731  -0.5631  -0.5594  -0.5550
 -0.5416  -0.5327  -0.5315  -0.5237  -0.5119  -0.5091  -0.5062  -0.4995
 -0.4861  -0.4819  -0.4757  -0.4743  -0.4689  -0.4666  -0.4590  -0.4450
 -0.4230  -0.3980  -0.3826  -0.3681  -0.3519  -0.3047  -0.2876  -0.2170

          Ground-State Mulliken Net Atomic Charges

     Atom                 Charge (a.u.)
  ----------------------------------------
      1 C                    -0.069404
      2 C                    -0.273672
      3 S                    -0.141019
      4 C                    -0.041818
      5 H                     0.191562
      6 C                    -0.054286
      7 C                     0.222438
      8 C                     0.219481
      9 C                    -0.070107
     10 C                    -0.049749
     11 O                    -0.335442
     12 O                    -0.343398
     13 C                    -0.082658
     14 H                     0.119460
     15 H                     0.091979
     16 H                     0.093008
     17 C                    -0.087290
     18 H                     0.123027
     19 H                     0.091036
     20 H                     0.090335
     21 C                    -0.263965
     22 S                    -0.080568
     23 C                     0.039456
     24 H                     0.204442
     25 C                    -0.060264
     26 S                     0.092631
     27 C                    -0.157528
     28 C                    -0.045177
     29 C                    -0.076220
     30 S                     0.041241
     31 C                    -0.151619
     32 C                     0.394111
     33 F                    -0.205590
     34 C                     0.446402
     35 O                    -0.460963
     36 O                    -0.301123
     37 C                    -0.058349
     38 H                     0.121380
     39 H                     0.095278
     40 H                     0.095271
     41 H                     0.219806
     42 H                     0.115237
     43 H                     0.113157
     44 H                     0.189469
  ----------------------------------------
  Sum of atomic charges =     0.000000

                    Cartesian Multipole Moments
 -----------------------------------------------------------------
    Charge (ESU x 10^10)
                 0.0000
    Dipole Moment (Debye)
         X       2.4941      Y       3.7866      Z       3.2334
       Tot       5.5690
    Quadrupole Moments (Debye-Ang)
        XX    -176.6938     XY       5.0780     YY    -188.8924
        XZ      -4.9518     YZ      -4.2834     ZZ    -205.2011

 Total job time:  347.51s(wall), 10719.55s(cpu)
        *  Thank you very much for using Q-Chem.  Have a nice day.  *
