 Q-Chem 5.4, Q-Chem, Inc., Pleasanton, CA (2021)
 Q-Chem 5.4.0 for Intel X86 EM64T Linux

User input:
--------------------------------------------------------------
$molecule
0 1
C	-0.217225	-8.517702	-0.236226
C	0.611939	-7.641575	0.448921
S	-1.413715	-7.638634	-1.218777
C	0.323572	-6.264785	0.206907
H	1.418739	-7.966081	1.118185
C	-0.768156	-6.072714	-0.711285
C	-1.215016	-4.787049	-1.053725
C	0.999917	-5.162801	0.804258
C	0.550033	-3.874817	0.464908
C	-0.541024	-3.683952	-0.456457
O	2.028811	-5.499772	1.630752
O	-2.249357	-4.459055	-1.883064
C	-2.586579	-5.329063	-2.956754
H	-3.262802	-4.755694	-3.619069
H	-3.124711	-6.238095	-2.609423
H	-1.686639	-5.637262	-3.531667
C	2.503251	-4.572261	2.599073
H	3.185356	-5.139743	3.260097
H	1.672937	-4.153131	3.207034
H	3.075213	-3.739531	2.135214
C	-0.828107	-2.306654	-0.694410
S	1.188794	-2.306501	0.983256
C	-0.000000	-1.435185	-0.000000
H	-1.632185	-1.978138	-1.364851
C	0.000000	0.000000	0.000000
S	0.581934	0.692785	1.507541
C	1.592155	1.897915	0.718873
C	0.581944	0.692363	-1.067872
C	1.473741	1.758764	-0.686410
S	0.427560	0.503942	-2.805516
C	1.549278	1.849357	-3.054530
C	2.002690	2.393529	-1.862551
F	2.858191	3.420549	-1.819088
C	1.838710	2.191348	-4.456084
O	1.349977	1.596481	-5.406510
O	2.701091	3.230705	-4.569225
C	3.023327	3.606605	-5.916207
H	3.725703	4.454534	-5.833064
H	2.112072	3.910035	-6.470168
H	3.495281	2.762996	-6.459293
H	2.185174	2.606846	1.306486
H	-0.792084	-9.143623	0.456457
H	0.352973	-9.149441	-0.927480
H	-0.688477	-1.443175	0.832067
$end

$rem
JOBTYPE		SP
EXCHANGE	HF
CORRELATION	pRIMP2
BASIS		cc-pvtz
METHOD		rimp2
AUX_BASIS	rimp2-cc-pvtz
SOLVENT_METHOD	PCM
PURECART	11111
SYMMETRY	false
MEM_TOTAL	110000
SCF_CONVERGENCE = 6
THRESH=10
GUI = 2
$end

$solvent
dielectric 4.90
$end
--------------------------------------------------------------

             Standard Nuclear Orientation (Angstroms)
    I     Atom           X                Y                Z
 ----------------------------------------------------------------
    1      C      -0.2172250000    -8.5177020000    -0.2362260000
    2      C       0.6119390000    -7.6415750000     0.4489210000
    3      S      -1.4137150000    -7.6386340000    -1.2187770000
    4      C       0.3235720000    -6.2647850000     0.2069070000
    5      H       1.4187390000    -7.9660810000     1.1181850000
    6      C      -0.7681560000    -6.0727140000    -0.7112850000
    7      C      -1.2150160000    -4.7870490000    -1.0537250000
    8      C       0.9999170000    -5.1628010000     0.8042580000
    9      C       0.5500330000    -3.8748170000     0.4649080000
   10      C      -0.5410240000    -3.6839520000    -0.4564570000
   11      O       2.0288110000    -5.4997720000     1.6307520000
   12      O      -2.2493570000    -4.4590550000    -1.8830640000
   13      C      -2.5865790000    -5.3290630000    -2.9567540000
   14      H      -3.2628020000    -4.7556940000    -3.6190690000
   15      H      -3.1247110000    -6.2380950000    -2.6094230000
   16      H      -1.6866390000    -5.6372620000    -3.5316670000
   17      C       2.5032510000    -4.5722610000     2.5990730000
   18      H       3.1853560000    -5.1397430000     3.2600970000
   19      H       1.6729370000    -4.1531310000     3.2070340000
   20      H       3.0752130000    -3.7395310000     2.1352140000
   21      C      -0.8281070000    -2.3066540000    -0.6944100000
   22      S       1.1887940000    -2.3065010000     0.9832560000
   23      C       0.0000000000    -1.4351850000     0.0000000000
   24      H      -1.6321850000    -1.9781380000    -1.3648510000
   25      C       0.0000000000     0.0000000000     0.0000000000
   26      S       0.5819340000     0.6927850000     1.5075410000
   27      C       1.5921550000     1.8979150000     0.7188730000
   28      C       0.5819440000     0.6923630000    -1.0678720000
   29      C       1.4737410000     1.7587640000    -0.6864100000
   30      S       0.4275600000     0.5039420000    -2.8055160000
   31      C       1.5492780000     1.8493570000    -3.0545300000
   32      C       2.0026900000     2.3935290000    -1.8625510000
   33      F       2.8581910000     3.4205490000    -1.8190880000
   34      C       1.8387100000     2.1913480000    -4.4560840000
   35      O       1.3499770000     1.5964810000    -5.4065100000
   36      O       2.7010910000     3.2307050000    -4.5692250000
   37      C       3.0233270000     3.6066050000    -5.9162070000
   38      H       3.7257030000     4.4545340000    -5.8330640000
   39      H       2.1120720000     3.9100350000    -6.4701680000
   40      H       3.4952810000     2.7629960000    -6.4592930000
   41      H       2.1851740000     2.6068460000     1.3064860000
   42      H      -0.7920840000    -9.1436230000     0.4564570000
   43      H       0.3529730000    -9.1494410000    -0.9274800000
   44      H      -0.6884770000    -1.4431750000     0.8320670000
 ----------------------------------------------------------------

   11   -2755.3127531184      8.01e-07  Convergence criterion met
 Total energy in the final basis set =    -2755.3127531184
        RIMP2         total energy =     -2760.4084240152 a.u.

                    Orbital Energies (a.u.)
 --------------------------------------------------------------

 Alpha MOs
 -- Occupied --
-92.0159 -92.0036 -91.9752 -91.9560 -26.3450 -20.6156 -20.5861 -20.5849
-20.5621 -11.4104 -11.3849 -11.3225 -11.3077 -11.3068 -11.3034 -11.2989
-11.2894 -11.2868 -11.2862 -11.2837 -11.2817 -11.2809 -11.2752 -11.2721
-11.2698 -11.2561 -11.2535 -11.2474 -11.2316  -9.0151  -9.0035  -8.9776
 -8.9586  -6.6958  -6.6951  -6.6947  -6.6845  -6.6838  -6.6827  -6.6586
 -6.6578  -6.6564  -6.6399  -6.6390  -6.6379  -1.6620  -1.4681  -1.4086
 -1.4075  -1.3708  -1.2330  -1.2012  -1.1716  -1.1395  -1.0978  -1.0465
 -1.0440  -1.0264  -1.0025  -0.9949  -0.9643  -0.9592  -0.9470  -0.9399
 -0.8922  -0.8704  -0.8632  -0.8147  -0.7988  -0.7886  -0.7827  -0.7656
 -0.7575  -0.7371  -0.7268  -0.7168  -0.6966  -0.6875  -0.6852  -0.6791
 -0.6746  -0.6607  -0.6550  -0.6474  -0.6347  -0.6301  -0.6178  -0.6137
 -0.6114  -0.6009  -0.5910  -0.5762  -0.5702  -0.5634  -0.5567  -0.5539
 -0.5412  -0.5333  -0.5308  -0.5268  -0.5129  -0.5086  -0.5065  -0.4997
 -0.4846  -0.4833  -0.4756  -0.4749  -0.4725  -0.4681  -0.4566  -0.4442
 -0.4254  -0.3947  -0.3844  -0.3676  -0.3506  -0.3049  -0.2870  -0.2159

          Ground-State Mulliken Net Atomic Charges

     Atom                 Charge (a.u.)
  ----------------------------------------
      1 C                    -0.069287
      2 C                    -0.275244
      3 S                    -0.140112
      4 C                    -0.040399
      5 H                     0.191386
      6 C                    -0.053782
      7 C                     0.221554
      8 C                     0.217213
      9 C                    -0.077775
     10 C                    -0.053371
     11 O                    -0.335749
     12 O                    -0.343765
     13 C                    -0.082554
     14 H                     0.119911
     15 H                     0.091747
     16 H                     0.093012
     17 C                    -0.086941
     18 H                     0.122940
     19 H                     0.090907
     20 H                     0.089398
     21 C                    -0.263044
     22 S                    -0.077709
     23 C                     0.029995
     24 H                     0.210015
     25 C                    -0.120519
     26 S                     0.087439
     27 C                    -0.150574
     28 C                     0.071231
     29 C                    -0.111849
     30 S                     0.027892
     31 C                    -0.155035
     32 C                     0.398209
     33 F                    -0.205543
     34 C                     0.446163
     35 O                    -0.461069
     36 O                    -0.301060
     37 C                    -0.058353
     38 H                     0.121525
     39 H                     0.095217
     40 H                     0.095396
     41 H                     0.220320
     42 H                     0.115165
     43 H                     0.113020
     44 H                     0.194076
  ----------------------------------------
  Sum of atomic charges =     0.000000

                    Cartesian Multipole Moments
 -----------------------------------------------------------------
    Charge (ESU x 10^10)
                 0.0000
    Dipole Moment (Debye)
         X       1.9388      Y       3.8726      Z       3.2393
       Tot       5.4082
    Quadrupole Moments (Debye-Ang)
        XX    -190.0909     XY       6.0005     YY    -188.9588
        XZ       3.3618     YZ      -7.7854     ZZ    -191.6610

 Total job time:  351.26s(wall), 10724.16s(cpu)
        *  Thank you very much for using Q-Chem.  Have a nice day.  *
