 Q-Chem 5.4, Q-Chem, Inc., Pleasanton, CA (2021)
 Q-Chem 5.4.0 for Intel X86 EM64T Linux

User input:
--------------------------------------------------------------
$molecule
0 1
C	-0.147685	-8.517702	0.284919
C	0.212552	-7.641575	-0.728574
S	-0.661757	-7.638634	1.745304
C	0.083761	-6.264785	-0.374824
H	0.565513	-7.966081	-1.715621
C	-0.405665	-6.072714	0.965104
C	-0.574617	-4.787049	1.502136
C	0.413763	-5.162801	-1.214687
C	0.248748	-3.874817	-0.675870
C	-0.243888	-3.683952	0.664513
O	0.838511	-5.499772	-2.464209
O	-1.000176	-4.459055	2.757750
C	-1.893778	-5.329063	3.441858
H	-2.284868	-4.755694	4.303826
H	-1.383341	-6.238095	3.828743
H	-2.741817	-5.637262	2.792824
C	1.586168	-4.572261	-3.241222
H	1.974033	-5.139743	-4.108274
H	2.441448	-4.153131	-2.668916
H	0.954660	-3.739531	-3.620041
C	-0.369302	-2.306654	1.015668
S	0.517367	-2.306501	-1.453394
C	-0.000000	-1.435185	-0.000000
H	-0.724300	-1.978138	2.000559
C	0.000000	0.000000	0.000000
S	0.382799	0.819795	1.507541
C	1.046687	2.245325	0.718873
C	0.382918	0.819389	-1.067872
C	0.968323	2.080267	-0.686410
S	0.282561	0.597432	-2.805516
C	1.017839	2.187324	-3.054530
C	1.314960	2.830306	-1.862551
F	1.875498	4.043751	-1.819088
C	1.208895	2.592573	-4.456084
O	0.890778	1.891482	-5.406510
O	1.772886	3.819715	-4.569225
C	1.986852	4.266207	-5.916207
H	2.445834	5.267032	-5.833064
H	1.028114	4.323448	-6.470168
H	2.661066	3.573494	-6.459293
H	1.436015	3.083584	1.306486
H	0.699838	-9.143623	0.588198
H	-0.992270	-9.149441	-0.014470
H	1.017360	-1.443175	0.362373
$end

$rem
JOBTYPE		SP
EXCHANGE	HF
CORRELATION	pRIMP2
BASIS		cc-pvtz
METHOD		rimp2
AUX_BASIS	rimp2-cc-pvtz
SOLVENT_METHOD	PCM
PURECART	11111
SYMMETRY	false
MEM_TOTAL	110000
SCF_CONVERGENCE = 6
THRESH=10
GUI = 2
$end

$solvent
dielectric 4.90
$end
--------------------------------------------------------------

             Standard Nuclear Orientation (Angstroms)
    I     Atom           X                Y                Z
 ----------------------------------------------------------------
    1      C      -0.1476850000    -8.5177020000     0.2849190000
    2      C       0.2125520000    -7.6415750000    -0.7285740000
    3      S      -0.6617570000    -7.6386340000     1.7453040000
    4      C       0.0837610000    -6.2647850000    -0.3748240000
    5      H       0.5655130000    -7.9660810000    -1.7156210000
    6      C      -0.4056650000    -6.0727140000     0.9651040000
    7      C      -0.5746170000    -4.7870490000     1.5021360000
    8      C       0.4137630000    -5.1628010000    -1.2146870000
    9      C       0.2487480000    -3.8748170000    -0.6758700000
   10      C      -0.2438880000    -3.6839520000     0.6645130000
   11      O       0.8385110000    -5.4997720000    -2.4642090000
   12      O      -1.0001760000    -4.4590550000     2.7577500000
   13      C      -1.8937780000    -5.3290630000     3.4418580000
   14      H      -2.2848680000    -4.7556940000     4.3038260000
   15      H      -1.3833410000    -6.2380950000     3.8287430000
   16      H      -2.7418170000    -5.6372620000     2.7928240000
   17      C       1.5861680000    -4.5722610000    -3.2412220000
   18      H       1.9740330000    -5.1397430000    -4.1082740000
   19      H       2.4414480000    -4.1531310000    -2.6689160000
   20      H       0.9546600000    -3.7395310000    -3.6200410000
   21      C      -0.3693020000    -2.3066540000     1.0156680000
   22      S       0.5173670000    -2.3065010000    -1.4533940000
   23      C       0.0000000000    -1.4351850000     0.0000000000
   24      H      -0.7243000000    -1.9781380000     2.0005590000
   25      C       0.0000000000     0.0000000000     0.0000000000
   26      S       0.3827990000     0.8197950000     1.5075410000
   27      C       1.0466870000     2.2453250000     0.7188730000
   28      C       0.3829180000     0.8193890000    -1.0678720000
   29      C       0.9683230000     2.0802670000    -0.6864100000
   30      S       0.2825610000     0.5974320000    -2.8055160000
   31      C       1.0178390000     2.1873240000    -3.0545300000
   32      C       1.3149600000     2.8303060000    -1.8625510000
   33      F       1.8754980000     4.0437510000    -1.8190880000
   34      C       1.2088950000     2.5925730000    -4.4560840000
   35      O       0.8907780000     1.8914820000    -5.4065100000
   36      O       1.7728860000     3.8197150000    -4.5692250000
   37      C       1.9868520000     4.2662070000    -5.9162070000
   38      H       2.4458340000     5.2670320000    -5.8330640000
   39      H       1.0281140000     4.3234480000    -6.4701680000
   40      H       2.6610660000     3.5734940000    -6.4592930000
   41      H       1.4360150000     3.0835840000     1.3064860000
   42      H       0.6998380000    -9.1436230000     0.5881980000
   43      H      -0.9922700000    -9.1494410000    -0.0144700000
   44      H       1.0173600000    -1.4431750000     0.3623730000
 ----------------------------------------------------------------

   11   -2755.3330558333      8.30e-07  Convergence criterion met
 Total energy in the final basis set =    -2755.3330558333
        RIMP2         total energy =     -2760.4262768345 a.u.

                    Orbital Energies (a.u.)
 --------------------------------------------------------------

 Alpha MOs
 -- Occupied --
-92.0117 -91.9946 -91.9790 -91.9597 -26.3422 -20.6147 -20.5882 -20.5879
-20.5612 -11.4091 -11.3808 -11.3102 -11.3097 -11.3074 -11.3049 -11.2972
-11.2936 -11.2887 -11.2846 -11.2845 -11.2835 -11.2835 -11.2829 -11.2750
-11.2709 -11.2606 -11.2595 -11.2513 -11.2405  -9.0109  -8.9950  -8.9813
 -8.9623  -6.6917  -6.6911  -6.6905  -6.6759  -6.6752  -6.6740  -6.6624
 -6.6616  -6.6602  -6.6435  -6.6426  -6.6416  -1.6594  -1.4671  -1.4115
 -1.4098  -1.3698  -1.2317  -1.2020  -1.1753  -1.1378  -1.1005  -1.0484
 -1.0441  -1.0246  -1.0041  -0.9974  -0.9638  -0.9567  -0.9496  -0.9419
 -0.8946  -0.8685  -0.8648  -0.8155  -0.7926  -0.7900  -0.7843  -0.7698
 -0.7562  -0.7377  -0.7244  -0.7131  -0.6969  -0.6913  -0.6845  -0.6813
 -0.6737  -0.6641  -0.6564  -0.6493  -0.6378  -0.6309  -0.6215  -0.6159
 -0.6111  -0.5996  -0.5933  -0.5772  -0.5709  -0.5657  -0.5599  -0.5576
 -0.5481  -0.5335  -0.5310  -0.5260  -0.5150  -0.5119  -0.5081  -0.5014
 -0.4844  -0.4789  -0.4769  -0.4734  -0.4698  -0.4662  -0.4588  -0.4480
 -0.4312  -0.3951  -0.3848  -0.3715  -0.3517  -0.2987  -0.2876  -0.2185

          Ground-State Mulliken Net Atomic Charges

     Atom                 Charge (a.u.)
  ----------------------------------------
      1 C                    -0.070767
      2 C                    -0.249638
      3 S                    -0.132590
      4 C                    -0.051405
      5 H                     0.194906
      6 C                    -0.048577
      7 C                     0.216407
      8 C                     0.231546
      9 C                    -0.074485
     10 C                    -0.016700
     11 O                    -0.334070
     12 O                    -0.343692
     13 C                    -0.082788
     14 H                     0.120049
     15 H                     0.092004
     16 H                     0.093248
     17 C                    -0.089713
     18 H                     0.124714
     19 H                     0.092849
     20 H                     0.092407
     21 C                    -0.334996
     22 S                    -0.102159
     23 C                     0.140598
     24 H                     0.199217
     25 C                     0.021559
     26 S                     0.077320
     27 C                    -0.214276
     28 C                    -0.101819
     29 C                    -0.085961
     30 S                     0.005330
     31 C                    -0.161076
     32 C                     0.406396
     33 F                    -0.207937
     34 C                     0.442531
     35 O                    -0.460086
     36 O                    -0.300676
     37 C                    -0.058654
     38 H                     0.121392
     39 H                     0.095231
     40 H                     0.094961
     41 H                     0.216592
     42 H                     0.118786
     43 H                     0.116508
     44 H                     0.207516
  ----------------------------------------
  Sum of atomic charges =     0.000000

                    Cartesian Multipole Moments
 -----------------------------------------------------------------
    Charge (ESU x 10^10)
                -0.0000
    Dipole Moment (Debye)
         X       1.7596      Y       1.3871      Z       2.8837
       Tot       3.6518
    Quadrupole Moments (Debye-Ang)
        XX    -191.7651     XY       4.3860     YY    -172.1444
        XZ     -12.4275     YZ      -2.6615     ZZ    -195.1007

 Total job time:  326.82s(wall), 10725.31s(cpu)
        *  Thank you very much for using Q-Chem.  Have a nice day.  *
