 Q-Chem 5.4, Q-Chem, Inc., Pleasanton, CA (2021)
 Q-Chem 5.4.0 for Intel X86 EM64T Linux

User input:
--------------------------------------------------------------
$molecule
0 1
C	0.236226	-8.517702	-0.217225
C	-0.448921	-7.641575	0.611939
S	1.218777	-7.638634	-1.413715
C	-0.206907	-6.264785	0.323572
H	-1.118185	-7.966081	1.418739
C	0.711285	-6.072714	-0.768156
C	1.053725	-4.787049	-1.215016
C	-0.804258	-5.162801	0.999917
C	-0.464908	-3.874817	0.550033
C	0.456457	-3.683952	-0.541024
O	-1.630752	-5.499772	2.028811
O	1.883064	-4.459055	-2.249357
C	2.956754	-5.329063	-2.586579
H	3.619069	-4.755694	-3.262802
H	2.609423	-6.238095	-3.124711
H	3.531667	-5.637262	-1.686639
C	-2.599073	-4.572261	2.503251
H	-3.260097	-5.139743	3.185356
H	-3.207034	-4.153131	1.672937
H	-2.135214	-3.739531	3.075213
C	0.694410	-2.306654	-0.828107
S	-0.983256	-2.306501	1.188794
C	0.000000	-1.435185	0.000000
H	1.364851	-1.978138	-1.632185
C	0.000000	0.000000	0.000000
S	0.234628	0.873813	1.507541
C	0.640889	2.392969	0.718873
C	0.234815	0.873434	-1.067872
C	0.592377	2.216811	-0.686410
S	0.174526	0.637422	-2.805516
C	0.622551	2.330840	-3.054530
C	0.803505	3.015647	-1.862551
F	1.144815	4.307994	-1.819088
C	0.740334	2.763108	-4.456084
O	0.548793	2.017428	-5.406510
O	1.082665	4.069544	-4.569225
C	1.215848	4.546407	-5.916207
H	1.494066	5.611729	-5.833064
H	0.261736	4.436296	-6.470168
H	2.000108	3.981294	-6.459293
H	0.878739	3.286099	1.306486
H	-0.456457	-9.143623	-0.792084
H	0.927480	-9.149441	0.352973
H	-0.832067	-1.443175	-0.688477
$end

$rem
JOBTYPE		SP
EXCHANGE	HF
CORRELATION	pRIMP2
BASIS		cc-pvtz
METHOD		rimp2
AUX_BASIS	rimp2-cc-pvtz
SOLVENT_METHOD	PCM
PURECART	11111
SYMMETRY	false
MEM_TOTAL	110000
SCF_CONVERGENCE = 6
THRESH=10
GUI = 2
$end

$solvent
dielectric 4.90
$end
--------------------------------------------------------------

             Standard Nuclear Orientation (Angstroms)
    I     Atom           X                Y                Z
 ----------------------------------------------------------------
    1      C       0.2362260000    -8.5177020000    -0.2172250000
    2      C      -0.4489210000    -7.6415750000     0.6119390000
    3      S       1.2187770000    -7.6386340000    -1.4137150000
    4      C      -0.2069070000    -6.2647850000     0.3235720000
    5      H      -1.1181850000    -7.9660810000     1.4187390000
    6      C       0.7112850000    -6.0727140000    -0.7681560000
    7      C       1.0537250000    -4.7870490000    -1.2150160000
    8      C      -0.8042580000    -5.1628010000     0.9999170000
    9      C      -0.4649080000    -3.8748170000     0.5500330000
   10      C       0.4564570000    -3.6839520000    -0.5410240000
   11      O      -1.6307520000    -5.4997720000     2.0288110000
   12      O       1.8830640000    -4.4590550000    -2.2493570000
   13      C       2.9567540000    -5.3290630000    -2.5865790000
   14      H       3.6190690000    -4.7556940000    -3.2628020000
   15      H       2.6094230000    -6.2380950000    -3.1247110000
   16      H       3.5316670000    -5.6372620000    -1.6866390000
   17      C      -2.5990730000    -4.5722610000     2.5032510000
   18      H      -3.2600970000    -5.1397430000     3.1853560000
   19      H      -3.2070340000    -4.1531310000     1.6729370000
   20      H      -2.1352140000    -3.7395310000     3.0752130000
   21      C       0.6944100000    -2.3066540000    -0.8281070000
   22      S      -0.9832560000    -2.3065010000     1.1887940000
   23      C       0.0000000000    -1.4351850000     0.0000000000
   24      H       1.3648510000    -1.9781380000    -1.6321850000
   25      C       0.0000000000     0.0000000000     0.0000000000
   26      S       0.2346280000     0.8738130000     1.5075410000
   27      C       0.6408890000     2.3929690000     0.7188730000
   28      C       0.2348150000     0.8734340000    -1.0678720000
   29      C       0.5923770000     2.2168110000    -0.6864100000
   30      S       0.1745260000     0.6374220000    -2.8055160000
   31      C       0.6225510000     2.3308400000    -3.0545300000
   32      C       0.8035050000     3.0156470000    -1.8625510000
   33      F       1.1448150000     4.3079940000    -1.8190880000
   34      C       0.7403340000     2.7631080000    -4.4560840000
   35      O       0.5487930000     2.0174280000    -5.4065100000
   36      O       1.0826650000     4.0695440000    -4.5692250000
   37      C       1.2158480000     4.5464070000    -5.9162070000
   38      H       1.4940660000     5.6117290000    -5.8330640000
   39      H       0.2617360000     4.4362960000    -6.4701680000
   40      H       2.0001080000     3.9812940000    -6.4592930000
   41      H       0.8787390000     3.2860990000     1.3064860000
   42      H      -0.4564570000    -9.1436230000    -0.7920840000
   43      H       0.9274800000    -9.1494410000     0.3529730000
   44      H      -0.8320670000    -1.4431750000    -0.6884770000
 ----------------------------------------------------------------

   11   -2755.3412436923      7.69e-07  Convergence criterion met
 Total energy in the final basis set =    -2755.3412436923
        RIMP2         total energy =     -2760.4320201208 a.u.

                    Orbital Energies (a.u.)
 --------------------------------------------------------------

 Alpha MOs
 -- Occupied --
-92.0131 -91.9991 -91.9807 -91.9585 -26.3439 -20.6153 -20.5880 -20.5872
-20.5618 -11.4100 -11.3831 -11.3095 -11.3089 -11.3061 -11.3058 -11.2987
-11.2986 -11.2892 -11.2855 -11.2852 -11.2844 -11.2826 -11.2821 -11.2733
-11.2732 -11.2589 -11.2587 -11.2500 -11.2378  -9.0119  -8.9992  -8.9828
 -8.9611  -6.6926  -6.6920  -6.6915  -6.6802  -6.6795  -6.6783  -6.6639
 -6.6631  -6.6618  -6.6423  -6.6414  -6.6404  -1.6609  -1.4678  -1.4113
 -1.4090  -1.3705  -1.2301  -1.2031  -1.1742  -1.1373  -1.1012  -1.0470
 -1.0459  -1.0235  -1.0040  -0.9983  -0.9625  -0.9595  -0.9490  -0.9413
 -0.8945  -0.8711  -0.8646  -0.8100  -0.8001  -0.7901  -0.7845  -0.7682
 -0.7580  -0.7367  -0.7257  -0.7097  -0.6999  -0.6952  -0.6851  -0.6808
 -0.6743  -0.6645  -0.6564  -0.6489  -0.6373  -0.6308  -0.6204  -0.6151
 -0.6123  -0.5989  -0.5932  -0.5776  -0.5714  -0.5656  -0.5592  -0.5541
 -0.5459  -0.5337  -0.5313  -0.5271  -0.5130  -0.5088  -0.5080  -0.5023
 -0.4852  -0.4819  -0.4766  -0.4743  -0.4695  -0.4675  -0.4620  -0.4472
 -0.4293  -0.3967  -0.3858  -0.3706  -0.3507  -0.3000  -0.2893  -0.2191

          Ground-State Mulliken Net Atomic Charges

     Atom                 Charge (a.u.)
  ----------------------------------------
      1 C                    -0.070375
      2 C                    -0.257992
      3 S                    -0.134551
      4 C                    -0.047643
      5 H                     0.193635
      6 C                    -0.052670
      7 C                     0.220522
      8 C                     0.232628
      9 C                    -0.078328
     10 C                    -0.034345
     11 O                    -0.334568
     12 O                    -0.342714
     13 C                    -0.082938
     14 H                     0.120613
     15 H                     0.092201
     16 H                     0.092666
     17 C                    -0.087164
     18 H                     0.124074
     19 H                     0.093013
     20 H                     0.089969
     21 C                    -0.309083
     22 S                    -0.082469
     23 C                     0.107539
     24 H                     0.209773
     25 C                    -0.049797
     26 S                     0.092736
     27 C                    -0.200954
     28 C                    -0.030887
     29 C                    -0.097810
     30 S                     0.004917
     31 C                    -0.155810
     32 C                     0.398106
     33 F                    -0.206595
     34 C                     0.444516
     35 O                    -0.460632
     36 O                    -0.300640
     37 C                    -0.058443
     38 H                     0.121541
     39 H                     0.095218
     40 H                     0.095161
     41 H                     0.216318
     42 H                     0.117677
     43 H                     0.115335
     44 H                     0.198251
  ----------------------------------------
  Sum of atomic charges =     0.000000

                    Cartesian Multipole Moments
 -----------------------------------------------------------------
    Charge (ESU x 10^10)
                -0.0000
    Dipole Moment (Debye)
         X       0.0963      Y       2.3123      Z       2.6873
       Tot       3.5465
    Quadrupole Moments (Debye-Ang)
        XX    -187.1293     XY       6.5581     YY    -174.2695
        XZ     -10.2973     YZ     -10.5669     ZZ    -201.4542

 Total job time:  359.09s(wall), 10979.26s(cpu)
        *  Thank you very much for using Q-Chem.  Have a nice day.  *
