 Q-Chem 5.4, Q-Chem, Inc., Pleasanton, CA (2021)
 Q-Chem 5.4.0 for Intel X86 EM64T Linux

User input:
--------------------------------------------------------------
$molecule
0 1
C	-0.014560	-8.517702	-0.320589
C	0.180211	-7.641575	0.737240
S	-0.299553	-7.638634	-1.842356
C	0.114873	-6.264785	0.366488
H	0.368061	-7.966081	1.768528
C	-0.131236	-6.072714	-1.038637
C	-0.253435	-4.787049	-1.588197
C	0.249014	-5.162801	1.258831
C	0.122513	-3.874817	0.709695
C	-0.121043	-3.683952	-0.697430
O	0.505933	-5.499772	2.553323
O	-0.512697	-4.459055	-2.888369
C	-0.080869	-5.329063	-3.927625
H	-0.173159	-4.755694	-4.869656
H	-0.716363	-6.238095	-4.007459
H	0.978072	-5.637262	-3.789565
C	0.246949	-4.572261	3.600064
H	0.344574	-5.139743	4.544887
H	-0.779898	-4.153131	3.532074
H	0.983261	-3.739531	3.612378
C	-0.188009	-2.306654	-1.064246
S	0.278644	-2.306501	1.517360
C	-0.000000	-1.435185	-0.000000
H	-0.373017	-1.978138	-2.094685
C	0.000000	0.000000	0.000000
S	0.079327	0.901280	1.507541
C	0.215617	2.467903	0.718873
C	0.079577	0.900940	-1.067872
C	0.198433	2.285998	-0.686410
S	0.061187	0.658044	-2.805516
C	0.208347	2.403534	-3.054530
C	0.267636	3.109360	-1.862551
F	0.379347	4.441341	-1.819088
C	0.249278	2.849688	-4.456084
O	0.190132	2.082076	-5.406510
O	0.359548	4.195721	-4.569225
C	0.407901	4.688467	-5.916207
H	0.496901	5.785916	-5.833064
H	-0.512596	4.414348	-6.470168
H	1.278377	4.268124	-6.459293
H	0.294764	3.388767	1.306486
H	-0.900177	-9.143623	-0.159475
H	0.866566	-9.149441	-0.483604
H	-1.062246	-1.443175	0.194856
$end

$rem
JOBTYPE		SP
EXCHANGE	HF
CORRELATION	pRIMP2
BASIS		cc-pvtz
METHOD		rimp2
AUX_BASIS	rimp2-cc-pvtz
SOLVENT_METHOD	PCM
PURECART	11111
SYMMETRY	false
MEM_TOTAL	110000
SCF_CONVERGENCE = 6
THRESH=10
GUI = 2
$end

$solvent
dielectric 4.90
$end
--------------------------------------------------------------

             Standard Nuclear Orientation (Angstroms)
    I     Atom           X                Y                Z
 ----------------------------------------------------------------
    1      C      -0.0145600000    -8.5177020000    -0.3205890000
    2      C       0.1802110000    -7.6415750000     0.7372400000
    3      S      -0.2995530000    -7.6386340000    -1.8423560000
    4      C       0.1148730000    -6.2647850000     0.3664880000
    5      H       0.3680610000    -7.9660810000     1.7685280000
    6      C      -0.1312360000    -6.0727140000    -1.0386370000
    7      C      -0.2534350000    -4.7870490000    -1.5881970000
    8      C       0.2490140000    -5.1628010000     1.2588310000
    9      C       0.1225130000    -3.8748170000     0.7096950000
   10      C      -0.1210430000    -3.6839520000    -0.6974300000
   11      O       0.5059330000    -5.4997720000     2.5533230000
   12      O      -0.5126970000    -4.4590550000    -2.8883690000
   13      C      -0.0808690000    -5.3290630000    -3.9276250000
   14      H      -0.1731590000    -4.7556940000    -4.8696560000
   15      H      -0.7163630000    -6.2380950000    -4.0074590000
   16      H       0.9780720000    -5.6372620000    -3.7895650000
   17      C       0.2469490000    -4.5722610000     3.6000640000
   18      H       0.3445740000    -5.1397430000     4.5448870000
   19      H      -0.7798980000    -4.1531310000     3.5320740000
   20      H       0.9832610000    -3.7395310000     3.6123780000
   21      C      -0.1880090000    -2.3066540000    -1.0642460000
   22      S       0.2786440000    -2.3065010000     1.5173600000
   23      C       0.0000000000    -1.4351850000     0.0000000000
   24      H      -0.3730170000    -1.9781380000    -2.0946850000
   25      C       0.0000000000     0.0000000000     0.0000000000
   26      S       0.0793270000     0.9012800000     1.5075410000
   27      C       0.2156170000     2.4679030000     0.7188730000
   28      C       0.0795770000     0.9009400000    -1.0678720000
   29      C       0.1984330000     2.2859980000    -0.6864100000
   30      S       0.0611870000     0.6580440000    -2.8055160000
   31      C       0.2083470000     2.4035340000    -3.0545300000
   32      C       0.2676360000     3.1093600000    -1.8625510000
   33      F       0.3793470000     4.4413410000    -1.8190880000
   34      C       0.2492780000     2.8496880000    -4.4560840000
   35      O       0.1901320000     2.0820760000    -5.4065100000
   36      O       0.3595480000     4.1957210000    -4.5692250000
   37      C       0.4079010000     4.6884670000    -5.9162070000
   38      H       0.4969010000     5.7859160000    -5.8330640000
   39      H      -0.5125960000     4.4143480000    -6.4701680000
   40      H       1.2783770000     4.2681240000    -6.4592930000
   41      H       0.2947640000     3.3887670000     1.3064860000
   42      H      -0.9001770000    -9.1436230000    -0.1594750000
   43      H       0.8665660000    -9.1494410000    -0.4836040000
   44      H      -1.0622460000    -1.4431750000     0.1948560000
 ----------------------------------------------------------------

   11   -2755.3423804040      8.86e-07  Convergence criterion met
 Total energy in the final basis set =    -2755.3423804040
        RIMP2         total energy =     -2760.4325317906 a.u.

                    Orbital Energies (a.u.)
 --------------------------------------------------------------

 Alpha MOs
 -- Occupied --
-92.0149 -91.9957 -91.9828 -91.9595 -26.3425 -20.6149 -20.5896 -20.5876
-20.5615 -11.4094 -11.3812 -11.3116 -11.3116 -11.3101 -11.3001 -11.2981
-11.2911 -11.2888 -11.2862 -11.2859 -11.2848 -11.2844 -11.2826 -11.2748
-11.2741 -11.2613 -11.2599 -11.2512 -11.2406  -9.0137  -8.9959  -8.9851
 -8.9621  -6.6945  -6.6939  -6.6933  -6.6770  -6.6763  -6.6751  -6.6662
 -6.6653  -6.6640  -6.6433  -6.6424  -6.6414  -1.6596  -1.4673  -1.4128
 -1.4095  -1.3700  -1.2300  -1.2034  -1.1757  -1.1375  -1.1016  -1.0485
 -1.0448  -1.0234  -1.0049  -0.9996  -0.9632  -0.9594  -0.9499  -0.9407
 -0.8959  -0.8704  -0.8654  -0.8092  -0.8024  -0.7900  -0.7848  -0.7692
 -0.7565  -0.7385  -0.7245  -0.7130  -0.6995  -0.6906  -0.6847  -0.6812
 -0.6739  -0.6635  -0.6576  -0.6495  -0.6394  -0.6320  -0.6215  -0.6159
 -0.6122  -0.5983  -0.5936  -0.5768  -0.5719  -0.5653  -0.5604  -0.5524
 -0.5499  -0.5357  -0.5318  -0.5297  -0.5147  -0.5095  -0.5087  -0.5016
 -0.4854  -0.4820  -0.4772  -0.4736  -0.4714  -0.4670  -0.4611  -0.4480
 -0.4341  -0.3947  -0.3877  -0.3722  -0.3506  -0.2982  -0.2891  -0.2186

          Ground-State Mulliken Net Atomic Charges

     Atom                 Charge (a.u.)
  ----------------------------------------
      1 C                    -0.070689
      2 C                    -0.250595
      3 S                    -0.132308
      4 C                    -0.049249
      5 H                     0.194647
      6 C                    -0.050063
      7 C                     0.227392
      8 C                     0.232467
      9 C                    -0.073564
     10 C                    -0.046232
     11 O                    -0.333463
     12 O                    -0.344234
     13 C                    -0.083520
     14 H                     0.121550
     15 H                     0.092677
     16 H                     0.093032
     17 C                    -0.088782
     18 H                     0.124966
     19 H                     0.093340
     20 H                     0.090403
     21 C                    -0.293605
     22 S                    -0.095219
     23 C                     0.138897
     24 H                     0.196709
     25 C                    -0.080405
     26 S                     0.065449
     27 C                    -0.213219
     28 C                     0.046549
     29 C                    -0.133064
     30 S                    -0.014586
     31 C                    -0.164145
     32 C                     0.410147
     33 F                    -0.207817
     34 C                     0.443493
     35 O                    -0.460727
     36 O                    -0.300439
     37 C                    -0.058844
     38 H                     0.121533
     39 H                     0.095170
     40 H                     0.095169
     41 H                     0.218208
     42 H                     0.118725
     43 H                     0.116489
     44 H                     0.207756
  ----------------------------------------
  Sum of atomic charges =     0.000000

                    Cartesian Multipole Moments
 -----------------------------------------------------------------
    Charge (ESU x 10^10)
                 0.0000
    Dipole Moment (Debye)
         X      -0.4280      Y       1.4124      Z       3.4688
       Tot       3.7697
    Quadrupole Moments (Debye-Ang)
        XX    -201.3870     XY       0.6171     YY    -169.1740
        XZ      -3.4396     YZ     -11.9833     ZZ    -188.2790

 Total job time:  324.22s(wall), 10461.95s(cpu)
        *  Thank you very much for using Q-Chem.  Have a nice day.  *
