 Q-Chem 5.4, Q-Chem, Inc., Pleasanton, CA (2021)
 Q-Chem 5.4.0 for Intel X86 EM64T Linux

User input:
--------------------------------------------------------------
$molecule
0 1
C	0.217225	-8.517702	0.236226
C	-0.611939	-7.641575	-0.448921
S	1.413715	-7.638634	1.218777
C	-0.323572	-6.264785	-0.206907
H	-1.418739	-7.966081	-1.118185
C	0.768156	-6.072714	0.711285
C	1.215016	-4.787049	1.053725
C	-0.999917	-5.162801	-0.804258
C	-0.550033	-3.874817	-0.464908
C	0.541024	-3.683952	0.456457
O	-2.028811	-5.499772	-1.630752
O	2.249357	-4.459055	1.883064
C	2.586579	-5.329063	2.956754
H	3.262802	-4.755694	3.619069
H	3.124711	-6.238095	2.609423
H	1.686639	-5.637262	3.531667
C	-2.503251	-4.572261	-2.599073
H	-3.185356	-5.139743	-3.260097
H	-1.672937	-4.153131	-3.207034
H	-3.075213	-3.739531	-2.135214
C	0.828107	-2.306654	0.694410
S	-1.188794	-2.306501	-0.983256
C	0.000000	-1.435185	0.000000
H	1.632185	-1.978138	1.364851
C	0.000000	0.000000	0.000000
S	0.452792	0.783312	1.507541
C	1.238397	2.145556	0.718873
C	0.452875	0.782898	-1.067872
C	1.145945	1.987956	-0.686410
S	0.333556	0.570531	-2.805516
C	1.204604	2.090290	-3.054530
C	1.556633	2.704929	-1.862551
F	2.220797	3.864903	-1.819088
C	1.430252	2.477345	-4.456084
O	1.052242	1.806648	-5.406510
O	2.099050	3.650663	-4.569225
C	2.351116	4.076808	-5.916207
H	2.895579	5.033821	-5.833064
H	1.401015	4.217390	-6.470168
H	2.962391	3.327969	-6.459293
H	1.699302	2.946693	1.306486
H	0.792084	-9.143623	-0.456457
H	-0.352973	-9.149441	0.927480
H	0.688477	-1.443175	-0.832067
$end

$rem
JOBTYPE		SP
EXCHANGE	HF
CORRELATION	pRIMP2
BASIS		cc-pvtz
METHOD		rimp2
AUX_BASIS	rimp2-cc-pvtz
SOLVENT_METHOD	PCM
PURECART	11111
SYMMETRY	false
MEM_TOTAL	110000
SCF_CONVERGENCE = 6
THRESH=10
GUI = 2
$end

$solvent
dielectric 4.90
$end
--------------------------------------------------------------

             Standard Nuclear Orientation (Angstroms)
    I     Atom           X                Y                Z
 ----------------------------------------------------------------
    1      C       0.2172250000    -8.5177020000     0.2362260000
    2      C      -0.6119390000    -7.6415750000    -0.4489210000
    3      S       1.4137150000    -7.6386340000     1.2187770000
    4      C      -0.3235720000    -6.2647850000    -0.2069070000
    5      H      -1.4187390000    -7.9660810000    -1.1181850000
    6      C       0.7681560000    -6.0727140000     0.7112850000
    7      C       1.2150160000    -4.7870490000     1.0537250000
    8      C      -0.9999170000    -5.1628010000    -0.8042580000
    9      C      -0.5500330000    -3.8748170000    -0.4649080000
   10      C       0.5410240000    -3.6839520000     0.4564570000
   11      O      -2.0288110000    -5.4997720000    -1.6307520000
   12      O       2.2493570000    -4.4590550000     1.8830640000
   13      C       2.5865790000    -5.3290630000     2.9567540000
   14      H       3.2628020000    -4.7556940000     3.6190690000
   15      H       3.1247110000    -6.2380950000     2.6094230000
   16      H       1.6866390000    -5.6372620000     3.5316670000
   17      C      -2.5032510000    -4.5722610000    -2.5990730000
   18      H      -3.1853560000    -5.1397430000    -3.2600970000
   19      H      -1.6729370000    -4.1531310000    -3.2070340000
   20      H      -3.0752130000    -3.7395310000    -2.1352140000
   21      C       0.8281070000    -2.3066540000     0.6944100000
   22      S      -1.1887940000    -2.3065010000    -0.9832560000
   23      C       0.0000000000    -1.4351850000     0.0000000000
   24      H       1.6321850000    -1.9781380000     1.3648510000
   25      C       0.0000000000     0.0000000000     0.0000000000
   26      S       0.4527920000     0.7833120000     1.5075410000
   27      C       1.2383970000     2.1455560000     0.7188730000
   28      C       0.4528750000     0.7828980000    -1.0678720000
   29      C       1.1459450000     1.9879560000    -0.6864100000
   30      S       0.3335560000     0.5705310000    -2.8055160000
   31      C       1.2046040000     2.0902900000    -3.0545300000
   32      C       1.5566330000     2.7049290000    -1.8625510000
   33      F       2.2207970000     3.8649030000    -1.8190880000
   34      C       1.4302520000     2.4773450000    -4.4560840000
   35      O       1.0522420000     1.8066480000    -5.4065100000
   36      O       2.0990500000     3.6506630000    -4.5692250000
   37      C       2.3511160000     4.0768080000    -5.9162070000
   38      H       2.8955790000     5.0338210000    -5.8330640000
   39      H       1.4010150000     4.2173900000    -6.4701680000
   40      H       2.9623910000     3.3279690000    -6.4592930000
   41      H       1.6993020000     2.9466930000     1.3064860000
   42      H       0.7920840000    -9.1436230000    -0.4564570000
   43      H      -0.3529730000    -9.1494410000     0.9274800000
   44      H       0.6884770000    -1.4431750000    -0.8320670000
 ----------------------------------------------------------------

   11   -2755.3283952080      7.45e-07  Convergence criterion met
 Total energy in the final basis set =    -2755.3283952080
        RIMP2         total energy =     -2760.4228250202 a.u.

                    Orbital Energies (a.u.)
 --------------------------------------------------------------

 Alpha MOs
 -- Occupied --
-92.0150 -92.0023 -91.9751 -91.9579 -26.3447 -20.6155 -20.5873 -20.5860
-20.5620 -11.4103 -11.3844 -11.3119 -11.3090 -11.3061 -11.3020 -11.2995
-11.2987 -11.2893 -11.2863 -11.2834 -11.2830 -11.2824 -11.2792 -11.2729
-11.2725 -11.2577 -11.2573 -11.2493 -11.2357  -9.0137  -9.0022  -8.9776
 -8.9605  -6.6945  -6.6938  -6.6934  -6.6832  -6.6825  -6.6814  -6.6587
 -6.6578  -6.6565  -6.6418  -6.6408  -6.6398  -1.6617  -1.4680  -1.4098
 -1.4087  -1.3707  -1.2329  -1.2017  -1.1732  -1.1385  -1.1002  -1.0476
 -1.0451  -1.0248  -1.0026  -0.9966  -0.9644  -0.9571  -0.9485  -0.9419
 -0.8926  -0.8713  -0.8630  -0.8166  -0.7938  -0.7893  -0.7842  -0.7678
 -0.7586  -0.7352  -0.7265  -0.7101  -0.7009  -0.6942  -0.6854  -0.6802
 -0.6745  -0.6661  -0.6551  -0.6482  -0.6352  -0.6306  -0.6196  -0.6151
 -0.6106  -0.6001  -0.5936  -0.5756  -0.5712  -0.5640  -0.5578  -0.5552
 -0.5523  -0.5319  -0.5279  -0.5244  -0.5130  -0.5100  -0.5073  -0.5004
 -0.4857  -0.4814  -0.4764  -0.4743  -0.4724  -0.4664  -0.4594  -0.4455
 -0.4282  -0.3966  -0.3834  -0.3699  -0.3500  -0.3031  -0.2882  -0.2178

          Ground-State Mulliken Net Atomic Charges

     Atom                 Charge (a.u.)
  ----------------------------------------
      1 C                    -0.069954
      2 C                    -0.263313
      3 S                    -0.136511
      4 C                    -0.043771
      5 H                     0.193172
      6 C                    -0.052202
      7 C                     0.222240
      8 C                     0.227399
      9 C                    -0.073217
     10 C                    -0.047332
     11 O                    -0.335558
     12 O                    -0.343902
     13 C                    -0.082532
     14 H                     0.119703
     15 H                     0.092137
     16 H                     0.092797
     17 C                    -0.087298
     18 H                     0.122840
     19 H                     0.092962
     20 H                     0.090118
     21 C                    -0.271767
     22 S                    -0.077876
     23 C                     0.038551
     24 H                     0.208249
     25 C                    -0.048659
     26 S                     0.088086
     27 C                    -0.182127
     28 C                    -0.009989
     29 C                    -0.094023
     30 S                     0.014735
     31 C                    -0.152770
     32 C                     0.393296
     33 F                    -0.205329
     34 C                     0.445912
     35 O                    -0.460740
     36 O                    -0.301025
     37 C                    -0.058403
     38 H                     0.121566
     39 H                     0.095255
     40 H                     0.095210
     41 H                     0.217403
     42 H                     0.117023
     43 H                     0.114544
     44 H                     0.195100
  ----------------------------------------
  Sum of atomic charges =     0.000000

                    Cartesian Multipole Moments
 -----------------------------------------------------------------
    Charge (ESU x 10^10)
                -0.0000
    Dipole Moment (Debye)
         X       1.7815      Y       2.8565      Z       2.4081
       Tot       4.1391
    Quadrupole Moments (Debye-Ang)
        XX    -193.0755     XY       9.7664     YY    -180.2460
        XZ       4.3568     YZ      -4.4332     ZZ    -192.2578

 Total job time:  354.36s(wall), 10920.12s(cpu)
        *  Thank you very much for using Q-Chem.  Have a nice day.  *
