 Q-Chem 5.4, Q-Chem, Inc., Pleasanton, CA (2021)
 Q-Chem 5.4.0 for Intel X86 EM64T Linux

User input:
--------------------------------------------------------------
$molecule
0 1
C	0.172904	-8.517702	0.270358
C	-0.524688	-7.641575	-0.548363
S	1.180599	-7.638634	1.445750
C	-0.282727	-6.264785	-0.259951
H	-1.203014	-7.966081	-1.347559
C	0.632972	-6.072714	0.833868
C	1.013580	-4.787049	1.248701
C	-0.845068	-5.162801	-0.965673
C	-0.460946	-3.874817	-0.553357
C	0.453541	-3.683952	0.543470
O	-1.714812	-5.499772	-1.958276
O	1.888193	-4.459055	2.245053
C	2.033848	-5.329063	3.360989
H	2.584788	-4.755694	4.130667
H	2.624118	-6.238095	3.112380
H	1.047748	-5.637262	3.770895
C	-2.013896	-4.572261	-2.994272
H	-2.570853	-5.139743	-3.763700
H	-1.090625	-4.153131	-3.448815
H	-2.657717	-3.739531	-2.636780
C	0.694943	-2.306654	0.827659
S	-0.999993	-2.306501	-1.174750
C	-0.000000	-1.435185	-0.000000
H	1.370385	-1.978138	1.627541
C	0.000000	0.000000	0.000000
S	0.581934	0.692785	1.507541
C	1.592155	1.897915	0.718873
C	0.581944	0.692363	-1.067872
C	1.473741	1.758764	-0.686410
S	0.427560	0.503942	-2.805516
C	1.549278	1.849357	-3.054530
C	2.002690	2.393529	-1.862551
F	2.858191	3.420549	-1.819088
C	1.838710	2.191348	-4.456084
O	1.349977	1.596481	-5.406510
O	2.701091	3.230705	-4.569225
C	3.023327	3.606605	-5.916207
H	3.725703	4.454534	-5.833064
H	2.112072	3.910035	-6.470168
H	3.495281	2.762996	-6.459293
H	2.185174	2.606846	1.306486
H	0.859314	-9.143623	-0.311979
H	-0.508666	-9.149441	0.852097
H	0.822504	-1.443175	-0.699874
$end

$rem
JOBTYPE		SP
EXCHANGE	HF
CORRELATION	pRIMP2
BASIS		cc-pvtz
METHOD		rimp2
AUX_BASIS	rimp2-cc-pvtz
SOLVENT_METHOD	PCM
PURECART	11111
SYMMETRY	false
MEM_TOTAL	110000
SCF_CONVERGENCE = 6
THRESH=10
GUI = 2
$end

$solvent
dielectric 4.90
$end
--------------------------------------------------------------

             Standard Nuclear Orientation (Angstroms)
    I     Atom           X                Y                Z
 ----------------------------------------------------------------
    1      C       0.1729040000    -8.5177020000     0.2703580000
    2      C      -0.5246880000    -7.6415750000    -0.5483630000
    3      S       1.1805990000    -7.6386340000     1.4457500000
    4      C      -0.2827270000    -6.2647850000    -0.2599510000
    5      H      -1.2030140000    -7.9660810000    -1.3475590000
    6      C       0.6329720000    -6.0727140000     0.8338680000
    7      C       1.0135800000    -4.7870490000     1.2487010000
    8      C      -0.8450680000    -5.1628010000    -0.9656730000
    9      C      -0.4609460000    -3.8748170000    -0.5533570000
   10      C       0.4535410000    -3.6839520000     0.5434700000
   11      O      -1.7148120000    -5.4997720000    -1.9582760000
   12      O       1.8881930000    -4.4590550000     2.2450530000
   13      C       2.0338480000    -5.3290630000     3.3609890000
   14      H       2.5847880000    -4.7556940000     4.1306670000
   15      H       2.6241180000    -6.2380950000     3.1123800000
   16      H       1.0477480000    -5.6372620000     3.7708950000
   17      C      -2.0138960000    -4.5722610000    -2.9942720000
   18      H      -2.5708530000    -5.1397430000    -3.7637000000
   19      H      -1.0906250000    -4.1531310000    -3.4488150000
   20      H      -2.6577170000    -3.7395310000    -2.6367800000
   21      C       0.6949430000    -2.3066540000     0.8276590000
   22      S      -0.9999930000    -2.3065010000    -1.1747500000
   23      C       0.0000000000    -1.4351850000     0.0000000000
   24      H       1.3703850000    -1.9781380000     1.6275410000
   25      C       0.0000000000     0.0000000000     0.0000000000
   26      S       0.5819340000     0.6927850000     1.5075410000
   27      C       1.5921550000     1.8979150000     0.7188730000
   28      C       0.5819440000     0.6923630000    -1.0678720000
   29      C       1.4737410000     1.7587640000    -0.6864100000
   30      S       0.4275600000     0.5039420000    -2.8055160000
   31      C       1.5492780000     1.8493570000    -3.0545300000
   32      C       2.0026900000     2.3935290000    -1.8625510000
   33      F       2.8581910000     3.4205490000    -1.8190880000
   34      C       1.8387100000     2.1913480000    -4.4560840000
   35      O       1.3499770000     1.5964810000    -5.4065100000
   36      O       2.7010910000     3.2307050000    -4.5692250000
   37      C       3.0233270000     3.6066050000    -5.9162070000
   38      H       3.7257030000     4.4545340000    -5.8330640000
   39      H       2.1120720000     3.9100350000    -6.4701680000
   40      H       3.4952810000     2.7629960000    -6.4592930000
   41      H       2.1851740000     2.6068460000     1.3064860000
   42      H       0.8593140000    -9.1436230000    -0.3119790000
   43      H      -0.5086660000    -9.1494410000     0.8520970000
   44      H       0.8225040000    -1.4431750000    -0.6998740000
 ----------------------------------------------------------------

   11   -2755.3115763551      7.73e-07  Convergence criterion met
 Total energy in the final basis set =    -2755.3115763551
        RIMP2         total energy =     -2760.4111269611 a.u.

                    Orbital Energies (a.u.)
 --------------------------------------------------------------

 Alpha MOs
 -- Occupied --
-92.0161 -92.0039 -91.9747 -91.9572 -26.3449 -20.6157 -20.5871 -20.5854
-20.5621 -11.4105 -11.3847 -11.3149 -11.3087 -11.3052 -11.3032 -11.2987
-11.2961 -11.2894 -11.2872 -11.2831 -11.2829 -11.2823 -11.2788 -11.2730
-11.2714 -11.2571 -11.2557 -11.2485 -11.2340  -9.0149  -9.0038  -8.9772
 -8.9598  -6.6956  -6.6950  -6.6946  -6.6847  -6.6840  -6.6829  -6.6583
 -6.6574  -6.6562  -6.6411  -6.6401  -6.6391  -1.6620  -1.4681  -1.4095
 -1.4083  -1.3709  -1.2362  -1.2011  -1.1728  -1.1395  -1.0996  -1.0483
 -1.0447  -1.0260  -1.0020  -0.9961  -0.9654  -0.9566  -0.9484  -0.9420
 -0.8923  -0.8718  -0.8611  -0.8179  -0.7941  -0.7883  -0.7835  -0.7673
 -0.7584  -0.7352  -0.7268  -0.7105  -0.7010  -0.6938  -0.6856  -0.6806
 -0.6747  -0.6669  -0.6548  -0.6480  -0.6357  -0.6306  -0.6189  -0.6150
 -0.6104  -0.6009  -0.5937  -0.5765  -0.5706  -0.5637  -0.5577  -0.5557
 -0.5506  -0.5323  -0.5278  -0.5243  -0.5134  -0.5105  -0.5072  -0.4995
 -0.4855  -0.4818  -0.4768  -0.4740  -0.4720  -0.4651  -0.4587  -0.4450
 -0.4294  -0.3966  -0.3810  -0.3700  -0.3498  -0.3047  -0.2871  -0.2155

          Ground-State Mulliken Net Atomic Charges

     Atom                 Charge (a.u.)
  ----------------------------------------
      1 C                    -0.069590
      2 C                    -0.268130
      3 S                    -0.138380
      4 C                    -0.042161
      5 H                     0.192586
      6 C                    -0.052321
      7 C                     0.223518
      8 C                     0.223622
      9 C                    -0.066277
     10 C                    -0.052185
     11 O                    -0.335484
     12 O                    -0.344300
     13 C                    -0.082652
     14 H                     0.119477
     15 H                     0.092363
     16 H                     0.092793
     17 C                    -0.087676
     18 H                     0.122830
     19 H                     0.092639
     20 H                     0.090154
     21 C                    -0.272428
     22 S                    -0.088188
     23 C                     0.048681
     24 H                     0.205512
     25 C                    -0.067772
     26 S                     0.092220
     27 C                    -0.176927
     28 C                     0.001482
     29 C                    -0.101271
     30 S                     0.026727
     31 C                    -0.154437
     32 C                     0.396589
     33 F                    -0.205393
     34 C                     0.446622
     35 O                    -0.460986
     36 O                    -0.301068
     37 C                    -0.058402
     38 H                     0.121561
     39 H                     0.095320
     40 H                     0.095232
     41 H                     0.218265
     42 H                     0.116373
     43 H                     0.113810
     44 H                     0.197652
  ----------------------------------------
  Sum of atomic charges =     0.000000

                    Cartesian Multipole Moments
 -----------------------------------------------------------------
    Charge (ESU x 10^10)
                -0.0000
    Dipole Moment (Debye)
         X       2.4239      Y       2.9824      Z       2.4127
       Tot       4.5377
    Quadrupole Moments (Debye-Ang)
        XX    -192.9164     XY      10.3403     YY    -185.4664
        XZ       1.2783     YZ      -3.1651     ZZ    -189.3024

 Total job time:  334.14s(wall), 10187.84s(cpu)
        *  Thank you very much for using Q-Chem.  Have a nice day.  *
