 Q-Chem 5.4, Q-Chem, Inc., Pleasanton, CA (2021)
 Q-Chem 5.4.0 for Intel X86 EM64T Linux

User input:
--------------------------------------------------------------
$molecule
0 1
C	0.701193	-8.488892	0.318247
C	0.616742	-7.616807	-0.757333
S	0.640926	-7.611739	1.866383
C	0.496713	-6.245258	-0.380867
H	0.639132	-7.940593	-1.805573
C	0.478351	-6.054060	1.045647
C	0.391116	-4.771116	1.608077
C	0.423432	-5.145477	-1.282948
C	0.340289	-3.859847	-0.720187
C	0.319182	-3.670099	0.707853
O	0.424679	-5.483626	-2.602386
O	0.391967	-4.441795	2.933517
C	-0.135633	-5.361285	3.881999
H	-0.258024	-4.796434	4.825744
H	0.553241	-6.213521	4.070972
H	-1.123774	-5.757113	3.562152
C	0.778992	-4.521574	-3.588253
H	0.896118	-5.080975	-4.535674
H	1.738100	-4.016931	-3.342986
H	-0.013821	-3.755025	-3.728239
C	0.201385	-2.297846	1.080725
S	0.190142	-2.298676	-1.542694
C	0.125085	-1.429724	0.000000
H	0.176004	-1.970295	2.127635
C	0.000000	0.000000	0.000000
S	0.309893	0.850039	1.507541
C	0.847011	2.328006	0.718873
C	0.310046	0.849645	-1.067872
C	0.783331	2.156746	-0.686410
S	0.229416	0.619785	-2.805516
C	0.823328	2.267711	-3.054530
C	1.063278	2.934142	-1.862551
F	1.515925	4.191824	-1.819088
C	0.978337	2.688069	-4.456084
O	0.722535	1.961921	-5.406510
O	1.433229	3.959697	-4.569225
C	1.607467	4.423139	-5.916207
H	1.977475	5.460158	-5.833064
H	0.647388	4.396602	-6.470168
H	2.339490	3.791823	-6.459293
H	1.161798	3.197007	1.306486
H	1.652460	-9.033979	0.313367
H	-0.136385	-9.196322	0.325780
H	1.201616	-1.343560	-0.007439
$end

$rem
JOBTYPE		SP
EXCHANGE	HF
CORRELATION	pRIMP2
BASIS		cc-pvtz
METHOD		rimp2
AUX_BASIS	rimp2-cc-pvtz
SOLVENT_METHOD	PCM
PURECART	11111
SYMMETRY	false
MEM_TOTAL	110000
SCF_CONVERGENCE = 6
THRESH=10
GUI = 2
$end

$solvent
dielectric 4.90
$end
--------------------------------------------------------------

             Standard Nuclear Orientation (Angstroms)
    I     Atom           X                Y                Z
 ----------------------------------------------------------------
    1      C       0.7011930000    -8.4888920000     0.3182470000
    2      C       0.6167420000    -7.6168070000    -0.7573330000
    3      S       0.6409260000    -7.6117390000     1.8663830000
    4      C       0.4967130000    -6.2452580000    -0.3808670000
    5      H       0.6391320000    -7.9405930000    -1.8055730000
    6      C       0.4783510000    -6.0540600000     1.0456470000
    7      C       0.3911160000    -4.7711160000     1.6080770000
    8      C       0.4234320000    -5.1454770000    -1.2829480000
    9      C       0.3402890000    -3.8598470000    -0.7201870000
   10      C       0.3191820000    -3.6700990000     0.7078530000
   11      O       0.4246790000    -5.4836260000    -2.6023860000
   12      O       0.3919670000    -4.4417950000     2.9335170000
   13      C      -0.1356330000    -5.3612850000     3.8819990000
   14      H      -0.2580240000    -4.7964340000     4.8257440000
   15      H       0.5532410000    -6.2135210000     4.0709720000
   16      H      -1.1237740000    -5.7571130000     3.5621520000
   17      C       0.7789920000    -4.5215740000    -3.5882530000
   18      H       0.8961180000    -5.0809750000    -4.5356740000
   19      H       1.7381000000    -4.0169310000    -3.3429860000
   20      H      -0.0138210000    -3.7550250000    -3.7282390000
   21      C       0.2013850000    -2.2978460000     1.0807250000
   22      S       0.1901420000    -2.2986760000    -1.5426940000
   23      C       0.1250850000    -1.4297240000     0.0000000000
   24      H       0.1760040000    -1.9702950000     2.1276350000
   25      C       0.0000000000     0.0000000000     0.0000000000
   26      S       0.3098930000     0.8500390000     1.5075410000
   27      C       0.8470110000     2.3280060000     0.7188730000
   28      C       0.3100460000     0.8496450000    -1.0678720000
   29      C       0.7833310000     2.1567460000    -0.6864100000
   30      S       0.2294160000     0.6197850000    -2.8055160000
   31      C       0.8233280000     2.2677110000    -3.0545300000
   32      C       1.0632780000     2.9341420000    -1.8625510000
   33      F       1.5159250000     4.1918240000    -1.8190880000
   34      C       0.9783370000     2.6880690000    -4.4560840000
   35      O       0.7225350000     1.9619210000    -5.4065100000
   36      O       1.4332290000     3.9596970000    -4.5692250000
   37      C       1.6074670000     4.4231390000    -5.9162070000
   38      H       1.9774750000     5.4601580000    -5.8330640000
   39      H       0.6473880000     4.3966020000    -6.4701680000
   40      H       2.3394900000     3.7918230000    -6.4592930000
   41      H       1.1617980000     3.1970070000     1.3064860000
   42      H       1.6524600000    -9.0339790000     0.3133670000
   43      H      -0.1363850000    -9.1963220000     0.3257800000
   44      H       1.2016160000    -1.3435600000    -0.0074390000
 ----------------------------------------------------------------

   11   -2755.3323182007      8.21e-07  Convergence criterion met
 Total energy in the final basis set =    -2755.3323182007
        RIMP2         total energy =     -2760.4268194933 a.u.

                    Orbital Energies (a.u.)
 --------------------------------------------------------------

 Alpha MOs
 -- Occupied --
-92.0130 -91.9949 -91.9792 -91.9600 -26.3421 -20.6148 -20.5884 -20.5881
-20.5613 -11.4092 -11.3804 -11.3105 -11.3100 -11.3092 -11.3019 -11.2974
-11.2921 -11.2888 -11.2848 -11.2846 -11.2845 -11.2844 -11.2836 -11.2753
-11.2719 -11.2614 -11.2597 -11.2515 -11.2407  -9.0119  -8.9952  -8.9817
 -8.9625  -6.6927  -6.6921  -6.6916  -6.6762  -6.6755  -6.6743  -6.6628
 -6.6619  -6.6606  -6.6438  -6.6428  -6.6418  -1.6592  -1.4672  -1.4117
 -1.4100  -1.3699  -1.2321  -1.2021  -1.1755  -1.1378  -1.1009  -1.0488
 -1.0443  -1.0245  -1.0043  -0.9977  -0.9641  -0.9566  -0.9498  -0.9422
 -0.8948  -0.8693  -0.8642  -0.8158  -0.7919  -0.7904  -0.7843  -0.7700
 -0.7565  -0.7374  -0.7243  -0.7110  -0.6965  -0.6943  -0.6846  -0.6818
 -0.6737  -0.6650  -0.6565  -0.6494  -0.6380  -0.6314  -0.6217  -0.6160
 -0.6112  -0.5999  -0.5937  -0.5770  -0.5710  -0.5665  -0.5603  -0.5563
 -0.5490  -0.5331  -0.5309  -0.5268  -0.5165  -0.5120  -0.5084  -0.5009
 -0.4845  -0.4790  -0.4774  -0.4733  -0.4703  -0.4655  -0.4588  -0.4480
 -0.4323  -0.3979  -0.3822  -0.3725  -0.3510  -0.3008  -0.2859  -0.2177

          Ground-State Mulliken Net Atomic Charges

     Atom                 Charge (a.u.)
  ----------------------------------------
      1 C                    -0.070790
      2 C                    -0.248421
      3 S                    -0.132309
      4 C                    -0.050337
      5 H                     0.195106
      6 C                    -0.048502
      7 C                     0.217765
      8 C                     0.231955
      9 C                    -0.068230
     10 C                    -0.028868
     11 O                    -0.334017
     12 O                    -0.344031
     13 C                    -0.082693
     14 H                     0.120146
     15 H                     0.092070
     16 H                     0.093153
     17 C                    -0.089108
     18 H                     0.124807
     19 H                     0.093326
     20 H                     0.091726
     21 C                    -0.322244
     22 S                    -0.110519
     23 C                     0.125827
     24 H                     0.198236
     25 C                     0.026499
     26 S                     0.074195
     27 C                    -0.219888
     28 C                    -0.067470
     29 C                    -0.099967
     30 S                    -0.001991
     31 C                    -0.163119
     32 C                     0.406116
     33 F                    -0.207827
     34 C                     0.444208
     35 O                    -0.460365
     36 O                    -0.300714
     37 C                    -0.058608
     38 H                     0.121405
     39 H                     0.095180
     40 H                     0.094997
     41 H                     0.217046
     42 H                     0.118940
     43 H                     0.116575
     44 H                     0.210743
  ----------------------------------------
  Sum of atomic charges =     0.000000

                    Cartesian Multipole Moments
 -----------------------------------------------------------------
    Charge (ESU x 10^10)
                 0.0000
    Dipole Moment (Debye)
         X       1.5563      Y       1.3254      Z       2.6630
       Tot       3.3571
    Quadrupole Moments (Debye-Ang)
        XX    -198.0619     XY       3.4353     YY    -170.9725
        XZ      -8.7632     YZ      -3.2414     ZZ    -189.5352

 Total job time:  329.05s(wall), 10789.32s(cpu)
        *  Thank you very much for using Q-Chem.  Have a nice day.  *
