 Q-Chem 5.4, Q-Chem, Inc., Pleasanton, CA (2021)
 Q-Chem 5.4.0 for Intel X86 EM64T Linux

User input:
--------------------------------------------------------------
$molecule
0 1
C	0.318247	-8.517702	0.041330
C	-0.757333	-7.641575	0.049453
S	1.866383	-7.638634	0.024919
C	-0.380867	-6.264785	0.049488
H	-1.805573	-7.966081	0.055368
C	1.045647	-6.072714	0.051115
C	1.608077	-4.787049	0.026203
C	-1.282948	-5.162801	0.026637
C	-0.720187	-3.874817	-0.002586
C	0.707853	-3.683952	0.001903
O	-2.602386	-5.499772	0.054867
O	2.933517	-4.459055	-0.003348
C	3.881999	-5.329063	0.602384
H	4.825744	-4.755694	0.675079
H	4.070972	-6.238095	-0.009592
H	3.562152	-5.637262	1.621263
C	-3.588253	-4.572261	-0.381947
H	-4.535674	-5.139743	-0.449872
H	-3.342986	-4.153131	-1.381388
H	-3.728239	-3.739531	0.341040
C	1.080725	-2.306654	-0.000348
S	-1.542694	-2.306501	0.010924
C	0.000000	-1.435185	0.000000
H	2.127635	-1.978138	-0.003612
C	0.000000	0.000000	0.000000
S	0.693394	0.581209	1.507541
C	1.897536	1.592607	0.718873
C	0.693330	0.580791	-1.067872
C	1.756758	1.476132	-0.686410
S	0.508573	0.422041	-2.805516
C	1.846879	1.552232	-3.054530
C	2.387897	2.009402	-1.862551
F	3.408741	2.872264	-1.819088
C	2.191300	1.838768	-4.456084
O	1.606694	1.337806	-5.406510
O	3.221062	2.712584	-4.569225
C	3.603677	3.026817	-5.916207
H	4.442623	3.739898	-5.833064
H	2.758956	3.483875	-6.470168
H	3.921969	2.114070	-6.459293
H	2.604650	2.187790	1.306486
H	0.313367	-9.143623	-0.858809
H	0.325780	-9.149441	0.937378
H	-0.007439	-1.443175	-1.079945
$end

$rem
JOBTYPE		SP
EXCHANGE	HF
CORRELATION	pRIMP2
BASIS		cc-pvtz
METHOD		rimp2
AUX_BASIS	rimp2-cc-pvtz
SOLVENT_METHOD	PCM
PURECART	11111
SYMMETRY	false
MEM_TOTAL	110000
SCF_CONVERGENCE = 6
THRESH=10
GUI = 2
$end

$solvent
dielectric 4.90
$end
--------------------------------------------------------------

             Standard Nuclear Orientation (Angstroms)
    I     Atom           X                Y                Z
 ----------------------------------------------------------------
    1      C       0.3182470000    -8.5177020000     0.0413300000
    2      C      -0.7573330000    -7.6415750000     0.0494530000
    3      S       1.8663830000    -7.6386340000     0.0249190000
    4      C      -0.3808670000    -6.2647850000     0.0494880000
    5      H      -1.8055730000    -7.9660810000     0.0553680000
    6      C       1.0456470000    -6.0727140000     0.0511150000
    7      C       1.6080770000    -4.7870490000     0.0262030000
    8      C      -1.2829480000    -5.1628010000     0.0266370000
    9      C      -0.7201870000    -3.8748170000    -0.0025860000
   10      C       0.7078530000    -3.6839520000     0.0019030000
   11      O      -2.6023860000    -5.4997720000     0.0548670000
   12      O       2.9335170000    -4.4590550000    -0.0033480000
   13      C       3.8819990000    -5.3290630000     0.6023840000
   14      H       4.8257440000    -4.7556940000     0.6750790000
   15      H       4.0709720000    -6.2380950000    -0.0095920000
   16      H       3.5621520000    -5.6372620000     1.6212630000
   17      C      -3.5882530000    -4.5722610000    -0.3819470000
   18      H      -4.5356740000    -5.1397430000    -0.4498720000
   19      H      -3.3429860000    -4.1531310000    -1.3813880000
   20      H      -3.7282390000    -3.7395310000     0.3410400000
   21      C       1.0807250000    -2.3066540000    -0.0003480000
   22      S      -1.5426940000    -2.3065010000     0.0109240000
   23      C       0.0000000000    -1.4351850000     0.0000000000
   24      H       2.1276350000    -1.9781380000    -0.0036120000
   25      C       0.0000000000     0.0000000000     0.0000000000
   26      S       0.6933940000     0.5812090000     1.5075410000
   27      C       1.8975360000     1.5926070000     0.7188730000
   28      C       0.6933300000     0.5807910000    -1.0678720000
   29      C       1.7567580000     1.4761320000    -0.6864100000
   30      S       0.5085730000     0.4220410000    -2.8055160000
   31      C       1.8468790000     1.5522320000    -3.0545300000
   32      C       2.3878970000     2.0094020000    -1.8625510000
   33      F       3.4087410000     2.8722640000    -1.8190880000
   34      C       2.1913000000     1.8387680000    -4.4560840000
   35      O       1.6066940000     1.3378060000    -5.4065100000
   36      O       3.2210620000     2.7125840000    -4.5692250000
   37      C       3.6036770000     3.0268170000    -5.9162070000
   38      H       4.4426230000     3.7398980000    -5.8330640000
   39      H       2.7589560000     3.4838750000    -6.4701680000
   40      H       3.9219690000     2.1140700000    -6.4592930000
   41      H       2.6046500000     2.1877900000     1.3064860000
   42      H       0.3133670000    -9.1436230000    -0.8588090000
   43      H       0.3257800000    -9.1494410000     0.9373780000
   44      H      -0.0074390000    -1.4431750000    -1.0799450000
 ----------------------------------------------------------------

   11   -2755.3024709594      6.78e-07  Convergence criterion met
 Total energy in the final basis set =    -2755.3024709594
        RIMP2         total energy =     -2760.4003386359 a.u.

                    Orbital Energies (a.u.)
 --------------------------------------------------------------

 Alpha MOs
 -- Occupied --
-92.0105 -92.0095 -91.9679 -91.9569 -26.3473 -20.6163 -20.5865 -20.5841
-20.5629 -11.4115 -11.3883 -11.3296 -11.3173 -11.3077 -11.3026 -11.3003
-11.2899 -11.2886 -11.2825 -11.2822 -11.2792 -11.2791 -11.2733 -11.2712
-11.2692 -11.2562 -11.2553 -11.2483 -11.2336  -9.0101  -9.0093  -8.9705
 -8.9596  -6.6907  -6.6902  -6.6899  -6.6896  -6.6895  -6.6884  -6.6516
 -6.6507  -6.6495  -6.6408  -6.6399  -6.6389  -1.6643  -1.4689  -1.4087
 -1.4070  -1.3717  -1.2386  -1.1996  -1.1719  -1.1405  -1.0996  -1.0503
 -1.0432  -1.0267  -1.0006  -0.9944  -0.9651  -0.9579  -0.9482  -0.9417
 -0.8906  -0.8733  -0.8603  -0.8171  -0.7970  -0.7897  -0.7819  -0.7665
 -0.7602  -0.7338  -0.7289  -0.7135  -0.7014  -0.6931  -0.6865  -0.6788
 -0.6755  -0.6668  -0.6541  -0.6472  -0.6365  -0.6286  -0.6186  -0.6145
 -0.6101  -0.6016  -0.5930  -0.5745  -0.5725  -0.5645  -0.5554  -0.5552
 -0.5484  -0.5323  -0.5260  -0.5202  -0.5129  -0.5101  -0.5057  -0.4995
 -0.4859  -0.4830  -0.4764  -0.4745  -0.4675  -0.4670  -0.4566  -0.4438
 -0.4174  -0.3986  -0.3818  -0.3684  -0.3509  -0.3118  -0.2864  -0.2180

          Ground-State Mulliken Net Atomic Charges

     Atom                 Charge (a.u.)
  ----------------------------------------
      1 C                    -0.069562
      2 C                    -0.268631
      3 S                    -0.138193
      4 C                    -0.041125
      5 H                     0.192464
      6 C                    -0.051974
      7 C                     0.222623
      8 C                     0.219303
      9 C                    -0.074225
     10 C                    -0.052534
     11 O                    -0.336250
     12 O                    -0.343969
     13 C                    -0.082599
     14 H                     0.119215
     15 H                     0.092089
     16 H                     0.092547
     17 C                    -0.086096
     18 H                     0.122097
     19 H                     0.091389
     20 H                     0.090251
     21 C                    -0.255699
     22 S                    -0.101280
     23 C                     0.053595
     24 H                     0.207413
     25 C                    -0.139023
     26 S                     0.095085
     27 C                    -0.137559
     28 C                     0.023457
     29 C                    -0.095623
     30 S                     0.040066
     31 C                    -0.155803
     32 C                     0.398439
     33 F                    -0.203451
     34 C                     0.448098
     35 O                    -0.461387
     36 O                    -0.301261
     37 C                    -0.058138
     38 H                     0.121673
     39 H                     0.095408
     40 H                     0.095539
     41 H                     0.219864
     42 H                     0.116235
     43 H                     0.113727
     44 H                     0.183805
  ----------------------------------------
  Sum of atomic charges =     0.000000

                    Cartesian Multipole Moments
 -----------------------------------------------------------------
    Charge (ESU x 10^10)
                 0.0000
    Dipole Moment (Debye)
         X       3.0746      Y       3.4896      Z       1.9923
       Tot       5.0596
    Quadrupole Moments (Debye-Ang)
        XX    -175.6324     XY      11.9389     YY    -188.5588
        XZ      -0.0769     YZ      -5.0858     ZZ    -202.7307

 Total job time:  329.64s(wall), 10667.62s(cpu)
        *  Thank you very much for using Q-Chem.  Have a nice day.  *
