 Q-Chem 5.4, Q-Chem, Inc., Pleasanton, CA (2021)
 Q-Chem 5.4.0 for Intel X86 EM64T Linux

User input:
--------------------------------------------------------------
$molecule
0 1
C	0.320589	-8.517702	-0.014560
C	-0.737240	-7.641575	0.180211
S	1.842356	-7.638634	-0.299553
C	-0.366488	-6.264785	0.114873
H	-1.768528	-7.966081	0.368061
C	1.038637	-6.072714	-0.131236
C	1.588197	-4.787049	-0.253435
C	-1.258831	-5.162801	0.249014
C	-0.709695	-3.874817	0.122513
C	0.697430	-3.683952	-0.121043
O	-2.553323	-5.499772	0.505933
O	2.888369	-4.459055	-0.512697
C	3.927625	-5.329063	-0.080869
H	4.869656	-4.755694	-0.173159
H	4.007459	-6.238095	-0.716363
H	3.789565	-5.637262	0.978072
C	-3.600064	-4.572261	0.246949
H	-4.544887	-5.139743	0.344574
H	-3.532074	-4.153131	-0.779898
H	-3.612378	-3.739531	0.983261
C	1.064246	-2.306654	-0.188009
S	-1.517360	-2.306501	0.278644
C	0.000000	-1.435185	0.000000
H	2.094685	-1.978138	-0.373017
C	0.000000	0.000000	0.000000
S	0.000474	0.904764	1.507541
C	-0.000295	2.477305	0.718873
C	0.000752	0.904447	-1.067872
C	-0.001560	2.294593	-0.686410
S	0.003602	0.660872	-2.805516
C	-0.001928	2.412546	-3.054530
C	-0.004381	3.120854	-1.862551
F	-0.009185	4.457503	-1.819088
C	-0.000038	2.860570	-4.456084
O	0.007944	2.090724	-5.406510
O	-0.007501	4.211092	-4.569225
C	-0.002278	4.706177	-5.916207
H	-0.009265	5.807207	-5.833064
H	-0.895381	4.352875	-6.470168
H	0.901521	4.363301	-6.459293
H	-0.001708	3.401562	1.306486
H	0.159475	-9.143623	-0.900177
H	0.483604	-9.149441	0.866566
H	-0.194856	-1.443175	-1.062246
$end

$rem
JOBTYPE		SP
EXCHANGE	HF
CORRELATION	pRIMP2
BASIS		cc-pvtz
METHOD		rimp2
AUX_BASIS	rimp2-cc-pvtz
SOLVENT_METHOD	PCM
PURECART	11111
SYMMETRY	false
MEM_TOTAL	110000
SCF_CONVERGENCE = 6
THRESH=10
GUI = 2
$end

$solvent
dielectric 4.90
$end
--------------------------------------------------------------

             Standard Nuclear Orientation (Angstroms)
    I     Atom           X                Y                Z
 ----------------------------------------------------------------
    1      C       0.3205890000    -8.5177020000    -0.0145600000
    2      C      -0.7372400000    -7.6415750000     0.1802110000
    3      S       1.8423560000    -7.6386340000    -0.2995530000
    4      C      -0.3664880000    -6.2647850000     0.1148730000
    5      H      -1.7685280000    -7.9660810000     0.3680610000
    6      C       1.0386370000    -6.0727140000    -0.1312360000
    7      C       1.5881970000    -4.7870490000    -0.2534350000
    8      C      -1.2588310000    -5.1628010000     0.2490140000
    9      C      -0.7096950000    -3.8748170000     0.1225130000
   10      C       0.6974300000    -3.6839520000    -0.1210430000
   11      O      -2.5533230000    -5.4997720000     0.5059330000
   12      O       2.8883690000    -4.4590550000    -0.5126970000
   13      C       3.9276250000    -5.3290630000    -0.0808690000
   14      H       4.8696560000    -4.7556940000    -0.1731590000
   15      H       4.0074590000    -6.2380950000    -0.7163630000
   16      H       3.7895650000    -5.6372620000     0.9780720000
   17      C      -3.6000640000    -4.5722610000     0.2469490000
   18      H      -4.5448870000    -5.1397430000     0.3445740000
   19      H      -3.5320740000    -4.1531310000    -0.7798980000
   20      H      -3.6123780000    -3.7395310000     0.9832610000
   21      C       1.0642460000    -2.3066540000    -0.1880090000
   22      S      -1.5173600000    -2.3065010000     0.2786440000
   23      C       0.0000000000    -1.4351850000     0.0000000000
   24      H       2.0946850000    -1.9781380000    -0.3730170000
   25      C       0.0000000000     0.0000000000     0.0000000000
   26      S       0.0004740000     0.9047640000     1.5075410000
   27      C      -0.0002950000     2.4773050000     0.7188730000
   28      C       0.0007520000     0.9044470000    -1.0678720000
   29      C      -0.0015600000     2.2945930000    -0.6864100000
   30      S       0.0036020000     0.6608720000    -2.8055160000
   31      C      -0.0019280000     2.4125460000    -3.0545300000
   32      C      -0.0043810000     3.1208540000    -1.8625510000
   33      F      -0.0091850000     4.4575030000    -1.8190880000
   34      C      -0.0000380000     2.8605700000    -4.4560840000
   35      O       0.0079440000     2.0907240000    -5.4065100000
   36      O      -0.0075010000     4.2110920000    -4.5692250000
   37      C      -0.0022780000     4.7061770000    -5.9162070000
   38      H      -0.0092650000     5.8072070000    -5.8330640000
   39      H      -0.8953810000     4.3528750000    -6.4701680000
   40      H       0.9015210000     4.3633010000    -6.4592930000
   41      H      -0.0017080000     3.4015620000     1.3064860000
   42      H       0.1594750000    -9.1436230000    -0.9001770000
   43      H       0.4836040000    -9.1494410000     0.8665660000
   44      H      -0.1948560000    -1.4431750000    -1.0622460000
 ----------------------------------------------------------------

   11   -2755.3486090383      6.80e-07  Convergence criterion met
 Total energy in the final basis set =    -2755.3486090383
        RIMP2         total energy =     -2760.4360145098 a.u.

                    Orbital Energies (a.u.)
 --------------------------------------------------------------

 Alpha MOs
 -- Occupied --
-92.0115 -92.0000 -91.9774 -91.9581 -26.3445 -20.6153 -20.5871 -20.5868
-20.5618 -11.4101 -11.3841 -11.3111 -11.3089 -11.3071 -11.3040 -11.3017
-11.2986 -11.2892 -11.2851 -11.2843 -11.2827 -11.2827 -11.2804 -11.2727
-11.2716 -11.2581 -11.2574 -11.2496 -11.2368  -9.0104  -9.0002  -8.9796
 -8.9607  -6.6912  -6.6906  -6.6901  -6.6812  -6.6805  -6.6794  -6.6607
 -6.6598  -6.6585  -6.6419  -6.6410  -6.6399  -1.6614  -1.4678  -1.4103
 -1.4088  -1.3705  -1.2295  -1.2025  -1.1733  -1.1369  -1.1008  -1.0465
 -1.0455  -1.0234  -1.0035  -0.9970  -0.9625  -0.9589  -0.9484  -0.9412
 -0.8932  -0.8711  -0.8649  -0.8129  -0.7961  -0.7900  -0.7846  -0.7680
 -0.7588  -0.7354  -0.7262  -0.7101  -0.7010  -0.6949  -0.6853  -0.6797
 -0.6744  -0.6650  -0.6555  -0.6485  -0.6350  -0.6305  -0.6199  -0.6148
 -0.6115  -0.5990  -0.5921  -0.5776  -0.5704  -0.5651  -0.5577  -0.5538
 -0.5480  -0.5316  -0.5313  -0.5260  -0.5129  -0.5086  -0.5071  -0.5016
 -0.4854  -0.4811  -0.4763  -0.4746  -0.4707  -0.4679  -0.4607  -0.4462
 -0.4223  -0.4010  -0.3852  -0.3700  -0.3505  -0.3021  -0.2893  -0.2209

          Ground-State Mulliken Net Atomic Charges

     Atom                 Charge (a.u.)
  ----------------------------------------
      1 C                    -0.070328
      2 C                    -0.259494
      3 S                    -0.135523
      4 C                    -0.043716
      5 H                     0.193407
      6 C                    -0.052739
      7 C                     0.227645
      8 C                     0.226310
      9 C                    -0.079398
     10 C                    -0.064079
     11 O                    -0.335142
     12 O                    -0.343192
     13 C                    -0.082706
     14 H                     0.120064
     15 H                     0.092178
     16 H                     0.092577
     17 C                    -0.086601
     18 H                     0.122931
     19 H                     0.092849
     20 H                     0.090281
     21 C                    -0.233386
     22 S                    -0.070235
     23 C                     0.060948
     24 H                     0.205834
     25 C                    -0.091400
     26 S                     0.088712
     27 C                    -0.179202
     28 C                     0.020736
     29 C                    -0.112945
     30 S                     0.000350
     31 C                    -0.159568
     32 C                     0.399563
     33 F                    -0.205846
     34 C                     0.444132
     35 O                    -0.461287
     36 O                    -0.300748
     37 C                    -0.058655
     38 H                     0.121526
     39 H                     0.095261
     40 H                     0.095185
     41 H                     0.217484
     42 H                     0.117420
     43 H                     0.114949
     44 H                     0.185848
  ----------------------------------------
  Sum of atomic charges =     0.000000

                    Cartesian Multipole Moments
 -----------------------------------------------------------------
    Charge (ESU x 10^10)
                -0.0000
    Dipole Moment (Debye)
         X      -0.2227      Y       2.9420      Z       2.4104
       Tot       3.8098
    Quadrupole Moments (Debye-Ang)
        XX    -183.8302     XY       3.7616     YY    -174.5884
        XZ       2.9410     YZ      -8.3620     ZZ    -206.0429

 Total job time:  332.33s(wall), 10636.71s(cpu)
        *  Thank you very much for using Q-Chem.  Have a nice day.  *
