 Q-Chem 5.4, Q-Chem, Inc., Pleasanton, CA (2021)
 Q-Chem 5.4.0 for Intel X86 EM64T Linux

User input:
--------------------------------------------------------------
$molecule
0 1
C	0.284919	-8.517702	0.147685
C	-0.728574	-7.641575	-0.212552
S	1.745304	-7.638634	0.661757
C	-0.374824	-6.264785	-0.083761
H	-1.715621	-7.966081	-0.565513
C	0.965104	-6.072714	0.405665
C	1.502136	-4.787049	0.574617
C	-1.214687	-5.162801	-0.413763
C	-0.675870	-3.874817	-0.248748
C	0.664513	-3.683952	0.243888
O	-2.464209	-5.499772	-0.838511
O	2.757750	-4.459055	1.000176
C	3.441858	-5.329063	1.893778
H	4.303826	-4.755694	2.284868
H	3.828743	-6.238095	1.383341
H	2.792824	-5.637262	2.741817
C	-3.241222	-4.572261	-1.586168
H	-4.108274	-5.139743	-1.974033
H	-2.668916	-4.153131	-2.441448
H	-3.620041	-3.739531	-0.954660
C	1.015668	-2.306654	0.369302
S	-1.453394	-2.306501	-0.517367
C	-0.000000	-1.435185	-0.000000
H	2.000559	-1.978138	0.724300
C	0.000000	0.000000	0.000000
S	0.309893	0.850039	1.507541
C	0.847011	2.328006	0.718873
C	0.310046	0.849645	-1.067872
C	0.783331	2.156746	-0.686410
S	0.229416	0.619785	-2.805516
C	0.823328	2.267711	-3.054530
C	1.063278	2.934142	-1.862551
F	1.515925	4.191824	-1.819088
C	0.978337	2.688069	-4.456084
O	0.722535	1.961921	-5.406510
O	1.433229	3.959697	-4.569225
C	1.607467	4.423139	-5.916207
H	1.977475	5.460158	-5.833064
H	0.647388	4.396602	-6.470168
H	2.339490	3.791823	-6.459293
H	1.161798	3.197007	1.306486
H	0.588198	-9.143623	-0.699838
H	-0.014470	-9.149441	0.992270
H	0.362373	-1.443175	-1.017360
$end

$rem
JOBTYPE		SP
EXCHANGE	HF
CORRELATION	pRIMP2
BASIS		cc-pvtz
METHOD		rimp2
AUX_BASIS	rimp2-cc-pvtz
SOLVENT_METHOD	PCM
PURECART	11111
SYMMETRY	false
MEM_TOTAL	110000
SCF_CONVERGENCE = 6
THRESH=10
GUI = 2
$end

$solvent
dielectric 4.90
$end
--------------------------------------------------------------

             Standard Nuclear Orientation (Angstroms)
    I     Atom           X                Y                Z
 ----------------------------------------------------------------
    1      C       0.2849190000    -8.5177020000     0.1476850000
    2      C      -0.7285740000    -7.6415750000    -0.2125520000
    3      S       1.7453040000    -7.6386340000     0.6617570000
    4      C      -0.3748240000    -6.2647850000    -0.0837610000
    5      H      -1.7156210000    -7.9660810000    -0.5655130000
    6      C       0.9651040000    -6.0727140000     0.4056650000
    7      C       1.5021360000    -4.7870490000     0.5746170000
    8      C      -1.2146870000    -5.1628010000    -0.4137630000
    9      C      -0.6758700000    -3.8748170000    -0.2487480000
   10      C       0.6645130000    -3.6839520000     0.2438880000
   11      O      -2.4642090000    -5.4997720000    -0.8385110000
   12      O       2.7577500000    -4.4590550000     1.0001760000
   13      C       3.4418580000    -5.3290630000     1.8937780000
   14      H       4.3038260000    -4.7556940000     2.2848680000
   15      H       3.8287430000    -6.2380950000     1.3833410000
   16      H       2.7928240000    -5.6372620000     2.7418170000
   17      C      -3.2412220000    -4.5722610000    -1.5861680000
   18      H      -4.1082740000    -5.1397430000    -1.9740330000
   19      H      -2.6689160000    -4.1531310000    -2.4414480000
   20      H      -3.6200410000    -3.7395310000    -0.9546600000
   21      C       1.0156680000    -2.3066540000     0.3693020000
   22      S      -1.4533940000    -2.3065010000    -0.5173670000
   23      C       0.0000000000    -1.4351850000     0.0000000000
   24      H       2.0005590000    -1.9781380000     0.7243000000
   25      C       0.0000000000     0.0000000000     0.0000000000
   26      S       0.3098930000     0.8500390000     1.5075410000
   27      C       0.8470110000     2.3280060000     0.7188730000
   28      C       0.3100460000     0.8496450000    -1.0678720000
   29      C       0.7833310000     2.1567460000    -0.6864100000
   30      S       0.2294160000     0.6197850000    -2.8055160000
   31      C       0.8233280000     2.2677110000    -3.0545300000
   32      C       1.0632780000     2.9341420000    -1.8625510000
   33      F       1.5159250000     4.1918240000    -1.8190880000
   34      C       0.9783370000     2.6880690000    -4.4560840000
   35      O       0.7225350000     1.9619210000    -5.4065100000
   36      O       1.4332290000     3.9596970000    -4.5692250000
   37      C       1.6074670000     4.4231390000    -5.9162070000
   38      H       1.9774750000     5.4601580000    -5.8330640000
   39      H       0.6473880000     4.3966020000    -6.4701680000
   40      H       2.3394900000     3.7918230000    -6.4592930000
   41      H       1.1617980000     3.1970070000     1.3064860000
   42      H       0.5881980000    -9.1436230000    -0.6998380000
   43      H      -0.0144700000    -9.1494410000     0.9922700000
   44      H       0.3623730000    -1.4431750000    -1.0173600000
 ----------------------------------------------------------------

   11   -2755.3403995184      6.95e-07  Convergence criterion met
 Total energy in the final basis set =    -2755.3403995184
        RIMP2         total energy =     -2760.4305409163 a.u.

                    Orbital Energies (a.u.)
 --------------------------------------------------------------

 Alpha MOs
 -- Occupied --
-92.0127 -92.0014 -91.9745 -91.9582 -26.3448 -20.6154 -20.5872 -20.5861
-20.5619 -11.4102 -11.3846 -11.3127 -11.3089 -11.3062 -11.3042 -11.2996
-11.2988 -11.2893 -11.2857 -11.2836 -11.2829 -11.2820 -11.2791 -11.2730
-11.2720 -11.2579 -11.2578 -11.2496 -11.2366  -9.0115  -9.0015  -8.9769
 -8.9608  -6.6923  -6.6916  -6.6912  -6.6825  -6.6818  -6.6807  -6.6580
 -6.6571  -6.6558  -6.6420  -6.6411  -6.6401  -1.6618  -1.4679  -1.4098
 -1.4087  -1.3706  -1.2308  -1.2019  -1.1732  -1.1376  -1.1005  -1.0471
 -1.0451  -1.0241  -1.0028  -0.9966  -0.9635  -0.9578  -0.9484  -0.9416
 -0.8926  -0.8711  -0.8642  -0.8152  -0.7944  -0.7900  -0.7843  -0.7679
 -0.7589  -0.7350  -0.7266  -0.7104  -0.7010  -0.6944  -0.6854  -0.6798
 -0.6745  -0.6654  -0.6551  -0.6483  -0.6347  -0.6303  -0.6199  -0.6149
 -0.6107  -0.5995  -0.5929  -0.5765  -0.5708  -0.5644  -0.5575  -0.5546
 -0.5517  -0.5317  -0.5280  -0.5245  -0.5128  -0.5093  -0.5071  -0.5011
 -0.4856  -0.4813  -0.4760  -0.4746  -0.4720  -0.4673  -0.4596  -0.4456
 -0.4242  -0.3986  -0.3845  -0.3697  -0.3504  -0.3030  -0.2888  -0.2200

          Ground-State Mulliken Net Atomic Charges

     Atom                 Charge (a.u.)
  ----------------------------------------
      1 C                    -0.070250
      2 C                    -0.260533
      3 S                    -0.135243
      4 C                    -0.044965
      5 H                     0.193372
      6 C                    -0.051628
      7 C                     0.221644
      8 C                     0.229061
      9 C                    -0.081548
     10 C                    -0.049090
     11 O                    -0.335750
     12 O                    -0.343624
     13 C                    -0.082561
     14 H                     0.119827
     15 H                     0.092047
     16 H                     0.092680
     17 C                    -0.086386
     18 H                     0.122641
     19 H                     0.092732
     20 H                     0.090047
     21 C                    -0.248902
     22 S                    -0.072600
     23 C                     0.039544
     24 H                     0.208916
     25 C                    -0.066169
     26 S                     0.088605
     27 C                    -0.180101
     28 C                     0.001067
     29 C                    -0.099175
     30 S                     0.007711
     31 C                    -0.156596
     32 C                     0.395510
     33 F                    -0.205284
     34 C                     0.444812
     35 O                    -0.460983
     36 O                    -0.300972
     37 C                    -0.058388
     38 H                     0.121492
     39 H                     0.095253
     40 H                     0.095218
     41 H                     0.217305
     42 H                     0.117390
     43 H                     0.114833
     44 H                     0.189043
  ----------------------------------------
  Sum of atomic charges =     0.000000

                    Cartesian Multipole Moments
 -----------------------------------------------------------------
    Charge (ESU x 10^10)
                -0.0000
    Dipole Moment (Debye)
         X       1.1224      Y       2.9699      Z       2.3471
       Tot       3.9482
    Quadrupole Moments (Debye-Ang)
        XX    -188.9844     XY       8.5688     YY    -176.7317
        XZ       6.4690     YZ      -6.0932     ZZ    -198.8046

 Total job time:  350.81s(wall), 10871.13s(cpu)
        *  Thank you very much for using Q-Chem.  Have a nice day.  *
