 Q-Chem 5.4, Q-Chem, Inc., Pleasanton, CA (2021)
 Q-Chem 5.4.0 for Intel X86 EM64T Linux

User input:
--------------------------------------------------------------
$molecule
0 1
C	0.041330	-8.517702	-0.318247
C	0.049453	-7.641575	0.757333
S	0.024919	-7.638634	-1.866383
C	0.049488	-6.264785	0.380867
H	0.055368	-7.966081	1.805573
C	0.051115	-6.072714	-1.045647
C	0.026203	-4.787049	-1.608077
C	0.026637	-5.162801	1.282948
C	-0.002586	-3.874817	0.720187
C	0.001903	-3.683952	-0.707853
O	0.054867	-5.499772	2.602386
O	-0.003348	-4.459055	-2.933517
C	0.602384	-5.329063	-3.881999
H	0.675079	-4.755694	-4.825744
H	-0.009592	-6.238095	-4.070972
H	1.621263	-5.637262	-3.562152
C	-0.381947	-4.572261	3.588253
H	-0.449872	-5.139743	4.535674
H	-1.381388	-4.153131	3.342986
H	0.341040	-3.739531	3.728239
C	-0.000348	-2.306654	-1.080725
S	0.010924	-2.306501	1.542694
C	-0.000000	-1.435185	-0.000000
H	-0.003612	-1.978138	-2.127635
C	0.000000	0.000000	0.000000
S	0.309893	0.850039	1.507541
C	0.847011	2.328006	0.718873
C	0.310046	0.849645	-1.067872
C	0.783331	2.156746	-0.686410
S	0.229416	0.619785	-2.805516
C	0.823328	2.267711	-3.054530
C	1.063278	2.934142	-1.862551
F	1.515925	4.191824	-1.819088
C	0.978337	2.688069	-4.456084
O	0.722535	1.961921	-5.406510
O	1.433229	3.959697	-4.569225
C	1.607467	4.423139	-5.916207
H	1.977475	5.460158	-5.833064
H	0.647388	4.396602	-6.470168
H	2.339490	3.791823	-6.459293
H	1.161798	3.197007	1.306486
H	-0.858809	-9.143623	-0.313367
H	0.937378	-9.149441	-0.325780
H	-1.079945	-1.443175	0.007439
$end

$rem
JOBTYPE		SP
EXCHANGE	HF
CORRELATION	pRIMP2
BASIS		cc-pvtz
METHOD		rimp2
AUX_BASIS	rimp2-cc-pvtz
SOLVENT_METHOD	PCM
PURECART	11111
SYMMETRY	false
MEM_TOTAL	110000
SCF_CONVERGENCE = 6
THRESH=10
GUI = 2
$end

$solvent
dielectric 4.90
$end
--------------------------------------------------------------

             Standard Nuclear Orientation (Angstroms)
    I     Atom           X                Y                Z
 ----------------------------------------------------------------
    1      C       0.0413300000    -8.5177020000    -0.3182470000
    2      C       0.0494530000    -7.6415750000     0.7573330000
    3      S       0.0249190000    -7.6386340000    -1.8663830000
    4      C       0.0494880000    -6.2647850000     0.3808670000
    5      H       0.0553680000    -7.9660810000     1.8055730000
    6      C       0.0511150000    -6.0727140000    -1.0456470000
    7      C       0.0262030000    -4.7870490000    -1.6080770000
    8      C       0.0266370000    -5.1628010000     1.2829480000
    9      C      -0.0025860000    -3.8748170000     0.7201870000
   10      C       0.0019030000    -3.6839520000    -0.7078530000
   11      O       0.0548670000    -5.4997720000     2.6023860000
   12      O      -0.0033480000    -4.4590550000    -2.9335170000
   13      C       0.6023840000    -5.3290630000    -3.8819990000
   14      H       0.6750790000    -4.7556940000    -4.8257440000
   15      H      -0.0095920000    -6.2380950000    -4.0709720000
   16      H       1.6212630000    -5.6372620000    -3.5621520000
   17      C      -0.3819470000    -4.5722610000     3.5882530000
   18      H      -0.4498720000    -5.1397430000     4.5356740000
   19      H      -1.3813880000    -4.1531310000     3.3429860000
   20      H       0.3410400000    -3.7395310000     3.7282390000
   21      C      -0.0003480000    -2.3066540000    -1.0807250000
   22      S       0.0109240000    -2.3065010000     1.5426940000
   23      C       0.0000000000    -1.4351850000     0.0000000000
   24      H      -0.0036120000    -1.9781380000    -2.1276350000
   25      C       0.0000000000     0.0000000000     0.0000000000
   26      S       0.3098930000     0.8500390000     1.5075410000
   27      C       0.8470110000     2.3280060000     0.7188730000
   28      C       0.3100460000     0.8496450000    -1.0678720000
   29      C       0.7833310000     2.1567460000    -0.6864100000
   30      S       0.2294160000     0.6197850000    -2.8055160000
   31      C       0.8233280000     2.2677110000    -3.0545300000
   32      C       1.0632780000     2.9341420000    -1.8625510000
   33      F       1.5159250000     4.1918240000    -1.8190880000
   34      C       0.9783370000     2.6880690000    -4.4560840000
   35      O       0.7225350000     1.9619210000    -5.4065100000
   36      O       1.4332290000     3.9596970000    -4.5692250000
   37      C       1.6074670000     4.4231390000    -5.9162070000
   38      H       1.9774750000     5.4601580000    -5.8330640000
   39      H       0.6473880000     4.3966020000    -6.4701680000
   40      H       2.3394900000     3.7918230000    -6.4592930000
   41      H       1.1617980000     3.1970070000     1.3064860000
   42      H      -0.8588090000    -9.1436230000    -0.3133670000
   43      H       0.9373780000    -9.1494410000    -0.3257800000
   44      H      -1.0799450000    -1.4431750000     0.0074390000
 ----------------------------------------------------------------

   11   -2755.3318074005      8.81e-07  Convergence criterion met
 Total energy in the final basis set =    -2755.3318074005
        RIMP2         total energy =     -2760.4254801402 a.u.

                    Orbital Energies (a.u.)
 --------------------------------------------------------------

 Alpha MOs
 -- Occupied --
-92.0146 -91.9974 -91.9828 -91.9588 -26.3430 -20.6150 -20.5890 -20.5873
-20.5616 -11.4096 -11.3820 -11.3106 -11.3098 -11.3077 -11.3028 -11.2982
-11.2940 -11.2889 -11.2860 -11.2855 -11.2848 -11.2827 -11.2825 -11.2745
-11.2737 -11.2599 -11.2593 -11.2505 -11.2389  -9.0134  -8.9977  -8.9849
 -8.9614  -6.6942  -6.6936  -6.6930  -6.6787  -6.6780  -6.6768  -6.6661
 -6.6652  -6.6639  -6.6426  -6.6417  -6.6407  -1.6601  -1.4675  -1.4122
 -1.4092  -1.3702  -1.2305  -1.2032  -1.1749  -1.1377  -1.1012  -1.0480
 -1.0452  -1.0239  -1.0045  -0.9990  -0.9633  -0.9594  -0.9494  -0.9408
 -0.8955  -0.8705  -0.8650  -0.8095  -0.8018  -0.7904  -0.7842  -0.7684
 -0.7569  -0.7380  -0.7250  -0.7123  -0.6992  -0.6917  -0.6848  -0.6813
 -0.6740  -0.6631  -0.6573  -0.6493  -0.6394  -0.6317  -0.6208  -0.6154
 -0.6121  -0.5986  -0.5936  -0.5772  -0.5712  -0.5654  -0.5600  -0.5546
 -0.5460  -0.5358  -0.5310  -0.5294  -0.5142  -0.5097  -0.5086  -0.5013
 -0.4852  -0.4821  -0.4774  -0.4738  -0.4707  -0.4664  -0.4603  -0.4476
 -0.4338  -0.3941  -0.3872  -0.3716  -0.3502  -0.2990  -0.2889  -0.2172

          Ground-State Mulliken Net Atomic Charges

     Atom                 Charge (a.u.)
  ----------------------------------------
      1 C                    -0.070331
      2 C                    -0.255788
      3 S                    -0.134182
      4 C                    -0.049094
      5 H                     0.194069
      6 C                    -0.050881
      7 C                     0.227443
      8 C                     0.231730
      9 C                    -0.073699
     10 C                    -0.042612
     11 O                    -0.333490
     12 O                    -0.344470
     13 C                    -0.083438
     14 H                     0.121470
     15 H                     0.092590
     16 H                     0.092936
     17 C                    -0.089110
     18 H                     0.125084
     19 H                     0.093128
     20 H                     0.090094
     21 C                    -0.292418
     22 S                    -0.097609
     23 C                     0.114531
     24 H                     0.197482
     25 C                    -0.032965
     26 S                     0.080763
     27 C                    -0.217498
     28 C                    -0.011258
     29 C                    -0.107108
     30 S                    -0.006312
     31 C                    -0.165468
     32 C                     0.411054
     33 F                    -0.206934
     34 C                     0.444402
     35 O                    -0.460872
     36 O                    -0.300771
     37 C                    -0.058541
     38 H                     0.121532
     39 H                     0.095133
     40 H                     0.095186
     41 H                     0.217783
     42 H                     0.117954
     43 H                     0.115693
     44 H                     0.204794
  ----------------------------------------
  Sum of atomic charges =     0.000000

                    Cartesian Multipole Moments
 -----------------------------------------------------------------
    Charge (ESU x 10^10)
                -0.0000
    Dipole Moment (Debye)
         X       0.1757      Y       1.7899      Z       3.2743
       Tot       3.7357
    Quadrupole Moments (Debye-Ang)
        XX    -198.1647     XY       4.9941     YY    -173.5073
        XZ      -8.3309     YZ     -11.5150     ZZ    -189.6015

 Total job time:  364.40s(wall), 11021.08s(cpu)
        *  Thank you very much for using Q-Chem.  Have a nice day.  *
