 Q-Chem 5.4, Q-Chem, Inc., Pleasanton, CA (2021)
 Q-Chem 5.4.0 for Intel X86 EM64T Linux

User input:
--------------------------------------------------------------
$molecule
0 1
C	0.254945	-8.517702	0.194917
C	-0.680596	-7.641575	-0.335839
S	1.603876	-7.638634	0.954772
C	-0.354585	-6.264785	-0.147576
H	-1.591356	-7.966081	-0.854836
C	0.879999	-6.072714	0.567090
C	1.379534	-4.787049	0.826731
C	-1.124384	-5.162801	-0.618405
C	-0.622407	-3.874817	-0.362333
C	0.612067	-3.683952	0.355575
O	-2.281166	-5.499772	-1.253677
O	2.542174	-4.459055	1.463859
C	3.060718	-5.329063	2.462679
H	3.841678	-4.755694	2.997507
H	3.530361	-6.238095	2.027179
H	2.274283	-5.637262	3.185132
C	-2.916545	-4.572261	-2.124902
H	-3.703073	-5.139743	-2.657438
H	-2.204417	-4.153131	-2.867810
H	-3.399269	-3.739531	-1.568770
C	0.936109	-2.306654	0.540061
S	-1.341474	-2.306501	-0.761887
C	-0.000000	-1.435185	-0.000000
H	1.844392	-1.978138	1.060690
C	0.000000	0.000000	0.000000
S	0.079327	0.901280	1.507541
C	0.215617	2.467903	0.718873
C	0.079577	0.900940	-1.067872
C	0.198433	2.285998	-0.686410
S	0.061187	0.658044	-2.805516
C	0.208347	2.403534	-3.054530
C	0.267636	3.109360	-1.862551
F	0.379347	4.441341	-1.819088
C	0.249278	2.849688	-4.456084
O	0.190132	2.082076	-5.406510
O	0.359548	4.195721	-4.569225
C	0.407901	4.688467	-5.916207
H	0.496901	5.785916	-5.833064
H	-0.512596	4.414348	-6.470168
H	1.278377	4.268124	-6.459293
H	0.294764	3.388767	1.306486
H	0.700788	-9.143623	-0.587067
H	-0.186556	-9.149441	0.974683
H	0.533530	-1.443175	-0.938979
$end

$rem
JOBTYPE		SP
EXCHANGE	HF
CORRELATION	pRIMP2
BASIS		cc-pvtz
METHOD		rimp2
AUX_BASIS	rimp2-cc-pvtz
SOLVENT_METHOD	PCM
PURECART	11111
SYMMETRY	false
MEM_TOTAL	110000
SCF_CONVERGENCE = 6
THRESH=10
GUI = 2
$end

$solvent
dielectric 4.90
$end
--------------------------------------------------------------

             Standard Nuclear Orientation (Angstroms)
    I     Atom           X                Y                Z
 ----------------------------------------------------------------
    1      C       0.2549450000    -8.5177020000     0.1949170000
    2      C      -0.6805960000    -7.6415750000    -0.3358390000
    3      S       1.6038760000    -7.6386340000     0.9547720000
    4      C      -0.3545850000    -6.2647850000    -0.1475760000
    5      H      -1.5913560000    -7.9660810000    -0.8548360000
    6      C       0.8799990000    -6.0727140000     0.5670900000
    7      C       1.3795340000    -4.7870490000     0.8267310000
    8      C      -1.1243840000    -5.1628010000    -0.6184050000
    9      C      -0.6224070000    -3.8748170000    -0.3623330000
   10      C       0.6120670000    -3.6839520000     0.3555750000
   11      O      -2.2811660000    -5.4997720000    -1.2536770000
   12      O       2.5421740000    -4.4590550000     1.4638590000
   13      C       3.0607180000    -5.3290630000     2.4626790000
   14      H       3.8416780000    -4.7556940000     2.9975070000
   15      H       3.5303610000    -6.2380950000     2.0271790000
   16      H       2.2742830000    -5.6372620000     3.1851320000
   17      C      -2.9165450000    -4.5722610000    -2.1249020000
   18      H      -3.7030730000    -5.1397430000    -2.6574380000
   19      H      -2.2044170000    -4.1531310000    -2.8678100000
   20      H      -3.3992690000    -3.7395310000    -1.5687700000
   21      C       0.9361090000    -2.3066540000     0.5400610000
   22      S      -1.3414740000    -2.3065010000    -0.7618870000
   23      C       0.0000000000    -1.4351850000     0.0000000000
   24      H       1.8443920000    -1.9781380000     1.0606900000
   25      C       0.0000000000     0.0000000000     0.0000000000
   26      S       0.0793270000     0.9012800000     1.5075410000
   27      C       0.2156170000     2.4679030000     0.7188730000
   28      C       0.0795770000     0.9009400000    -1.0678720000
   29      C       0.1984330000     2.2859980000    -0.6864100000
   30      S       0.0611870000     0.6580440000    -2.8055160000
   31      C       0.2083470000     2.4035340000    -3.0545300000
   32      C       0.2676360000     3.1093600000    -1.8625510000
   33      F       0.3793470000     4.4413410000    -1.8190880000
   34      C       0.2492780000     2.8496880000    -4.4560840000
   35      O       0.1901320000     2.0820760000    -5.4065100000
   36      O       0.3595480000     4.1957210000    -4.5692250000
   37      C       0.4079010000     4.6884670000    -5.9162070000
   38      H       0.4969010000     5.7859160000    -5.8330640000
   39      H      -0.5125960000     4.4143480000    -6.4701680000
   40      H       1.2783770000     4.2681240000    -6.4592930000
   41      H       0.2947640000     3.3887670000     1.3064860000
   42      H       0.7007880000    -9.1436230000    -0.5870670000
   43      H      -0.1865560000    -9.1494410000     0.9746830000
   44      H       0.5335300000    -1.4431750000    -0.9389790000
 ----------------------------------------------------------------

   11   -2755.3474515447      7.20e-07  Convergence criterion met
 Total energy in the final basis set =    -2755.3474515447
        RIMP2         total energy =     -2760.4362465560 a.u.

                    Orbital Energies (a.u.)
 --------------------------------------------------------------

 Alpha MOs
 -- Occupied --
-92.0130 -91.9995 -91.9769 -91.9586 -26.3441 -20.6152 -20.5874 -20.5868
-20.5617 -11.4099 -11.3835 -11.3092 -11.3085 -11.3075 -11.3042 -11.3007
-11.2984 -11.2891 -11.2852 -11.2840 -11.2831 -11.2830 -11.2808 -11.2736
-11.2723 -11.2587 -11.2584 -11.2500 -11.2376  -9.0117  -8.9996  -8.9792
 -8.9612  -6.6924  -6.6918  -6.6914  -6.6806  -6.6799  -6.6787  -6.6603
 -6.6594  -6.6581  -6.6425  -6.6415  -6.6405  -1.6611  -1.4677  -1.4104
 -1.4091  -1.3704  -1.2296  -1.2026  -1.1738  -1.1370  -1.1010  -1.0470
 -1.0451  -1.0235  -1.0038  -0.9973  -0.9633  -0.9578  -0.9487  -0.9415
 -0.8934  -0.8710  -0.8649  -0.8149  -0.7936  -0.7899  -0.7850  -0.7686
 -0.7585  -0.7356  -0.7259  -0.7096  -0.7006  -0.6948  -0.6851  -0.6802
 -0.6743  -0.6649  -0.6555  -0.6486  -0.6348  -0.6310  -0.6203  -0.6152
 -0.6110  -0.5992  -0.5928  -0.5773  -0.5705  -0.5644  -0.5583  -0.5563
 -0.5502  -0.5316  -0.5298  -0.5251  -0.5133  -0.5091  -0.5074  -0.5014
 -0.4860  -0.4800  -0.4772  -0.4743  -0.4726  -0.4667  -0.4605  -0.4461
 -0.4266  -0.3978  -0.3855  -0.3701  -0.3503  -0.3005  -0.2895  -0.2204

          Ground-State Mulliken Net Atomic Charges

     Atom                 Charge (a.u.)
  ----------------------------------------
      1 C                    -0.070389
      2 C                    -0.257070
      3 S                    -0.134318
      4 C                    -0.045377
      5 H                     0.193814
      6 C                    -0.050884
      7 C                     0.222701
      8 C                     0.229605
      9 C                    -0.080969
     10 C                    -0.059517
     11 O                    -0.335180
     12 O                    -0.343717
     13 C                    -0.082661
     14 H                     0.119943
     15 H                     0.092132
     16 H                     0.092743
     17 C                    -0.087190
     18 H                     0.123018
     19 H                     0.093419
     20 H                     0.090177
     21 C                    -0.242790
     22 S                    -0.070731
     23 C                     0.058229
     24 H                     0.208458
     25 C                    -0.065271
     26 S                     0.088017
     27 C                    -0.186883
     28 C                    -0.001270
     29 C                    -0.112306
     30 S                     0.002227
     31 C                    -0.156035
     32 C                     0.397777
     33 F                    -0.206102
     34 C                     0.444592
     35 O                    -0.460919
     36 O                    -0.300675
     37 C                    -0.058665
     38 H                     0.121504
     39 H                     0.095241
     40 H                     0.095133
     41 H                     0.217120
     42 H                     0.117802
     43 H                     0.115297
     44 H                     0.189971
  ----------------------------------------
  Sum of atomic charges =     0.000000

                    Cartesian Multipole Moments
 -----------------------------------------------------------------
    Charge (ESU x 10^10)
                -0.0000
    Dipole Moment (Debye)
         X       0.3834      Y       2.6121      Z       2.3997
       Tot       3.5677
    Quadrupole Moments (Debye-Ang)
        XX    -193.8135     XY       4.6531     YY    -173.4140
        XZ       8.6446     YZ      -5.8239     ZZ    -195.8620

 Total job time:  321.14s(wall), 10478.53s(cpu)
        *  Thank you very much for using Q-Chem.  Have a nice day.  *
