 Q-Chem 5.4, Q-Chem, Inc., Pleasanton, CA (2021)
 Q-Chem 5.4.0 for Intel X86 EM64T Linux

User input:
--------------------------------------------------------------
$molecule
0 1
C	-0.217225	-8.517702	-0.236226
C	0.611939	-7.641575	0.448921
S	-1.413715	-7.638634	-1.218777
C	0.323572	-6.264785	0.206907
H	1.418739	-7.966081	1.118185
C	-0.768156	-6.072714	-0.711285
C	-1.215016	-4.787049	-1.053725
C	0.999917	-5.162801	0.804258
C	0.550033	-3.874817	0.464908
C	-0.541024	-3.683952	-0.456457
O	2.028811	-5.499772	1.630752
O	-2.249357	-4.459055	-1.883064
C	-2.586579	-5.329063	-2.956754
H	-3.262802	-4.755694	-3.619069
H	-3.124711	-6.238095	-2.609423
H	-1.686639	-5.637262	-3.531667
C	2.503251	-4.572261	2.599073
H	3.185356	-5.139743	3.260097
H	1.672937	-4.153131	3.207034
H	3.075213	-3.739531	2.135214
C	-0.828107	-2.306654	-0.694410
S	1.188794	-2.306501	0.983256
C	-0.000000	-1.435185	-0.000000
H	-1.632185	-1.978138	-1.364851
C	0.000000	0.000000	0.000000
S	0.079327	0.901280	1.507541
C	0.215617	2.467903	0.718873
C	0.079577	0.900940	-1.067872
C	0.198433	2.285998	-0.686410
S	0.061187	0.658044	-2.805516
C	0.208347	2.403534	-3.054530
C	0.267636	3.109360	-1.862551
F	0.379347	4.441341	-1.819088
C	0.249278	2.849688	-4.456084
O	0.190132	2.082076	-5.406510
O	0.359548	4.195721	-4.569225
C	0.407901	4.688467	-5.916207
H	0.496901	5.785916	-5.833064
H	-0.512596	4.414348	-6.470168
H	1.278377	4.268124	-6.459293
H	0.294764	3.388767	1.306486
H	-0.792084	-9.143623	0.456457
H	0.352973	-9.149441	-0.927480
H	-0.688477	-1.443175	0.832067
$end

$rem
JOBTYPE		SP
EXCHANGE	HF
CORRELATION	pRIMP2
BASIS		cc-pvtz
METHOD		rimp2
AUX_BASIS	rimp2-cc-pvtz
SOLVENT_METHOD	PCM
PURECART	11111
SYMMETRY	false
MEM_TOTAL	110000
SCF_CONVERGENCE = 6
THRESH=10
GUI = 2
$end

$solvent
dielectric 4.90
$end
--------------------------------------------------------------

             Standard Nuclear Orientation (Angstroms)
    I     Atom           X                Y                Z
 ----------------------------------------------------------------
    1      C      -0.2172250000    -8.5177020000    -0.2362260000
    2      C       0.6119390000    -7.6415750000     0.4489210000
    3      S      -1.4137150000    -7.6386340000    -1.2187770000
    4      C       0.3235720000    -6.2647850000     0.2069070000
    5      H       1.4187390000    -7.9660810000     1.1181850000
    6      C      -0.7681560000    -6.0727140000    -0.7112850000
    7      C      -1.2150160000    -4.7870490000    -1.0537250000
    8      C       0.9999170000    -5.1628010000     0.8042580000
    9      C       0.5500330000    -3.8748170000     0.4649080000
   10      C      -0.5410240000    -3.6839520000    -0.4564570000
   11      O       2.0288110000    -5.4997720000     1.6307520000
   12      O      -2.2493570000    -4.4590550000    -1.8830640000
   13      C      -2.5865790000    -5.3290630000    -2.9567540000
   14      H      -3.2628020000    -4.7556940000    -3.6190690000
   15      H      -3.1247110000    -6.2380950000    -2.6094230000
   16      H      -1.6866390000    -5.6372620000    -3.5316670000
   17      C       2.5032510000    -4.5722610000     2.5990730000
   18      H       3.1853560000    -5.1397430000     3.2600970000
   19      H       1.6729370000    -4.1531310000     3.2070340000
   20      H       3.0752130000    -3.7395310000     2.1352140000
   21      C      -0.8281070000    -2.3066540000    -0.6944100000
   22      S       1.1887940000    -2.3065010000     0.9832560000
   23      C       0.0000000000    -1.4351850000     0.0000000000
   24      H      -1.6321850000    -1.9781380000    -1.3648510000
   25      C       0.0000000000     0.0000000000     0.0000000000
   26      S       0.0793270000     0.9012800000     1.5075410000
   27      C       0.2156170000     2.4679030000     0.7188730000
   28      C       0.0795770000     0.9009400000    -1.0678720000
   29      C       0.1984330000     2.2859980000    -0.6864100000
   30      S       0.0611870000     0.6580440000    -2.8055160000
   31      C       0.2083470000     2.4035340000    -3.0545300000
   32      C       0.2676360000     3.1093600000    -1.8625510000
   33      F       0.3793470000     4.4413410000    -1.8190880000
   34      C       0.2492780000     2.8496880000    -4.4560840000
   35      O       0.1901320000     2.0820760000    -5.4065100000
   36      O       0.3595480000     4.1957210000    -4.5692250000
   37      C       0.4079010000     4.6884670000    -5.9162070000
   38      H       0.4969010000     5.7859160000    -5.8330640000
   39      H      -0.5125960000     4.4143480000    -6.4701680000
   40      H       1.2783770000     4.2681240000    -6.4592930000
   41      H       0.2947640000     3.3887670000     1.3064860000
   42      H      -0.7920840000    -9.1436230000     0.4564570000
   43      H       0.3529730000    -9.1494410000    -0.9274800000
   44      H      -0.6884770000    -1.4431750000     0.8320670000
 ----------------------------------------------------------------

   11   -2755.3446162770      8.15e-07  Convergence criterion met
 Total energy in the final basis set =    -2755.3446162770
        RIMP2         total energy =     -2760.4321854523 a.u.

                    Orbital Energies (a.u.)
 --------------------------------------------------------------

 Alpha MOs
 -- Occupied --
-92.0162 -91.9971 -91.9787 -91.9582 -26.3432 -20.6150 -20.5873 -20.5870
-20.5616 -11.4096 -11.3822 -11.3091 -11.3088 -11.3077 -11.3039 -11.2982
-11.2967 -11.2890 -11.2849 -11.2849 -11.2837 -11.2824 -11.2806 -11.2730
-11.2730 -11.2583 -11.2583 -11.2497 -11.2369  -9.0149  -8.9972  -8.9810
 -8.9608  -6.6957  -6.6952  -6.6946  -6.6783  -6.6776  -6.6764  -6.6621
 -6.6612  -6.6599  -6.6421  -6.6411  -6.6401  -1.6603  -1.4675  -1.4107
 -1.4088  -1.3702  -1.2289  -1.2029  -1.1739  -1.1377  -1.1001  -1.0463
 -1.0445  -1.0241  -1.0039  -0.9976  -0.9627  -0.9592  -0.9485  -0.9405
 -0.8938  -0.8686  -0.8667  -0.8118  -0.8006  -0.7886  -0.7848  -0.7678
 -0.7566  -0.7378  -0.7252  -0.7162  -0.6980  -0.6864  -0.6847  -0.6799
 -0.6740  -0.6612  -0.6563  -0.6486  -0.6353  -0.6310  -0.6200  -0.6149
 -0.6119  -0.5990  -0.5921  -0.5764  -0.5717  -0.5650  -0.5586  -0.5519
 -0.5497  -0.5334  -0.5310  -0.5280  -0.5136  -0.5079  -0.5070  -0.5016
 -0.4853  -0.4802  -0.4774  -0.4743  -0.4729  -0.4683  -0.4606  -0.4462
 -0.4276  -0.3977  -0.3855  -0.3703  -0.3514  -0.2996  -0.2888  -0.2194

          Ground-State Mulliken Net Atomic Charges

     Atom                 Charge (a.u.)
  ----------------------------------------
      1 C                    -0.070152
      2 C                    -0.260093
      3 S                    -0.135105
      4 C                    -0.044415
      5 H                     0.193393
      6 C                    -0.051825
      7 C                     0.225170
      8 C                     0.225292
      9 C                    -0.077136
     10 C                    -0.059808
     11 O                    -0.334662
     12 O                    -0.343545
     13 C                    -0.082711
     14 H                     0.120507
     15 H                     0.091758
     16 H                     0.093215
     17 C                    -0.087182
     18 H                     0.123410
     19 H                     0.091964
     20 H                     0.090315
     21 C                    -0.254567
     22 S                    -0.077917
     23 C                     0.092911
     24 H                     0.211420
     25 C                    -0.121665
     26 S                     0.083464
     27 C                    -0.186418
     28 C                     0.049510
     29 C                    -0.122989
     30 S                     0.002381
     31 C                    -0.155813
     32 C                     0.400573
     33 F                    -0.207367
     34 C                     0.443902
     35 O                    -0.460458
     36 O                    -0.300497
     37 C                    -0.058674
     38 H                     0.121422
     39 H                     0.095126
     40 H                     0.095218
     41 H                     0.218542
     42 H                     0.117213
     43 H                     0.115145
     44 H                     0.191147
  ----------------------------------------
  Sum of atomic charges =     0.000000

                    Cartesian Multipole Moments
 -----------------------------------------------------------------
    Charge (ESU x 10^10)
                 0.0000
    Dipole Moment (Debye)
         X      -0.0710      Y       2.7258      Z       3.5387
       Tot       4.4674
    Quadrupole Moments (Debye-Ang)
        XX    -196.8814     XY      -1.4911     YY    -174.5827
        XZ       7.6199     YZ      -9.8920     ZZ    -192.7505

 Total job time:  317.08s(wall), 10270.86s(cpu)
        *  Thank you very much for using Q-Chem.  Have a nice day.  *
