 Q-Chem 5.4, Q-Chem, Inc., Pleasanton, CA (2021)
 Q-Chem 5.4.0 for Intel X86 EM64T Linux

User input:
--------------------------------------------------------------
$molecule
0 1
C	-0.284919	-8.517702	-0.147685
C	0.728574	-7.641575	0.212552
S	-1.745304	-7.638634	-0.661757
C	0.374824	-6.264785	0.083761
H	1.715621	-7.966081	0.565513
C	-0.965104	-6.072714	-0.405665
C	-1.502136	-4.787049	-0.574617
C	1.214687	-5.162801	0.413763
C	0.675870	-3.874817	0.248748
C	-0.664513	-3.683952	-0.243888
O	2.464209	-5.499772	0.838511
O	-2.757750	-4.459055	-1.000176
C	-3.441858	-5.329063	-1.893778
H	-4.303826	-4.755694	-2.284868
H	-3.828743	-6.238095	-1.383341
H	-2.792824	-5.637262	-2.741817
C	3.241222	-4.572261	1.586168
H	4.108274	-5.139743	1.974033
H	2.668916	-4.153131	2.441448
H	3.620041	-3.739531	0.954660
C	-1.015668	-2.306654	-0.369302
S	1.453394	-2.306501	0.517367
C	0.000000	-1.435185	0.000000
H	-2.000559	-1.978138	-0.724300
C	0.000000	0.000000	0.000000
S	0.693394	0.581209	1.507541
C	1.897536	1.592607	0.718873
C	0.693330	0.580791	-1.067872
C	1.756758	1.476132	-0.686410
S	0.508573	0.422041	-2.805516
C	1.846879	1.552232	-3.054530
C	2.387897	2.009402	-1.862551
F	3.408741	2.872264	-1.819088
C	2.191300	1.838768	-4.456084
O	1.606694	1.337806	-5.406510
O	3.221062	2.712584	-4.569225
C	3.603677	3.026817	-5.916207
H	4.442623	3.739898	-5.833064
H	2.758956	3.483875	-6.470168
H	3.921969	2.114070	-6.459293
H	2.604650	2.187790	1.306486
H	-0.588198	-9.143623	0.699838
H	0.014470	-9.149441	-0.992270
H	-0.362373	-1.443175	1.017360
$end

$rem
JOBTYPE		SP
EXCHANGE	HF
CORRELATION	pRIMP2
BASIS		cc-pvtz
METHOD		rimp2
AUX_BASIS	rimp2-cc-pvtz
SOLVENT_METHOD	PCM
PURECART	11111
SYMMETRY	false
MEM_TOTAL	110000
SCF_CONVERGENCE = 6
THRESH=10
GUI = 2
$end

$solvent
dielectric 4.90
$end
--------------------------------------------------------------

             Standard Nuclear Orientation (Angstroms)
    I     Atom           X                Y                Z
 ----------------------------------------------------------------
    1      C      -0.2849190000    -8.5177020000    -0.1476850000
    2      C       0.7285740000    -7.6415750000     0.2125520000
    3      S      -1.7453040000    -7.6386340000    -0.6617570000
    4      C       0.3748240000    -6.2647850000     0.0837610000
    5      H       1.7156210000    -7.9660810000     0.5655130000
    6      C      -0.9651040000    -6.0727140000    -0.4056650000
    7      C      -1.5021360000    -4.7870490000    -0.5746170000
    8      C       1.2146870000    -5.1628010000     0.4137630000
    9      C       0.6758700000    -3.8748170000     0.2487480000
   10      C      -0.6645130000    -3.6839520000    -0.2438880000
   11      O       2.4642090000    -5.4997720000     0.8385110000
   12      O      -2.7577500000    -4.4590550000    -1.0001760000
   13      C      -3.4418580000    -5.3290630000    -1.8937780000
   14      H      -4.3038260000    -4.7556940000    -2.2848680000
   15      H      -3.8287430000    -6.2380950000    -1.3833410000
   16      H      -2.7928240000    -5.6372620000    -2.7418170000
   17      C       3.2412220000    -4.5722610000     1.5861680000
   18      H       4.1082740000    -5.1397430000     1.9740330000
   19      H       2.6689160000    -4.1531310000     2.4414480000
   20      H       3.6200410000    -3.7395310000     0.9546600000
   21      C      -1.0156680000    -2.3066540000    -0.3693020000
   22      S       1.4533940000    -2.3065010000     0.5173670000
   23      C       0.0000000000    -1.4351850000     0.0000000000
   24      H      -2.0005590000    -1.9781380000    -0.7243000000
   25      C       0.0000000000     0.0000000000     0.0000000000
   26      S       0.6933940000     0.5812090000     1.5075410000
   27      C       1.8975360000     1.5926070000     0.7188730000
   28      C       0.6933300000     0.5807910000    -1.0678720000
   29      C       1.7567580000     1.4761320000    -0.6864100000
   30      S       0.5085730000     0.4220410000    -2.8055160000
   31      C       1.8468790000     1.5522320000    -3.0545300000
   32      C       2.3878970000     2.0094020000    -1.8625510000
   33      F       3.4087410000     2.8722640000    -1.8190880000
   34      C       2.1913000000     1.8387680000    -4.4560840000
   35      O       1.6066940000     1.3378060000    -5.4065100000
   36      O       3.2210620000     2.7125840000    -4.5692250000
   37      C       3.6036770000     3.0268170000    -5.9162070000
   38      H       4.4426230000     3.7398980000    -5.8330640000
   39      H       2.7589560000     3.4838750000    -6.4701680000
   40      H       3.9219690000     2.1140700000    -6.4592930000
   41      H       2.6046500000     2.1877900000     1.3064860000
   42      H      -0.5881980000    -9.1436230000     0.6998380000
   43      H       0.0144700000    -9.1494410000    -0.9922700000
   44      H      -0.3623730000    -1.4431750000     1.0173600000
 ----------------------------------------------------------------

   11   -2755.2986791750      7.22e-07  Convergence criterion met
 Total energy in the final basis set =    -2755.2986791750
        RIMP2         total energy =     -2760.3962288775 a.u.

                    Orbital Energies (a.u.)
 --------------------------------------------------------------

 Alpha MOs
 -- Occupied --
-92.0151 -92.0073 -91.9712 -91.9554 -26.3459 -20.6156 -20.5857 -20.5843
-20.5620 -11.4106 -11.3864 -11.3306 -11.3130 -11.3072 -11.3025 -11.2988
-11.2894 -11.2875 -11.2832 -11.2816 -11.2801 -11.2755 -11.2735 -11.2694
-11.2687 -11.2556 -11.2512 -11.2470 -11.2310  -9.0146  -9.0070  -8.9739
 -8.9580  -6.6953  -6.6945  -6.6942  -6.6879  -6.6872  -6.6861  -6.6549
 -6.6541  -6.6528  -6.6393  -6.6383  -6.6373  -1.6630  -1.4681  -1.4082
 -1.4070  -1.3709  -1.2366  -1.2001  -1.1713  -1.1406  -1.0970  -1.0481
 -1.0427  -1.0276  -1.0015  -0.9936  -0.9654  -0.9591  -0.9467  -0.9398
 -0.8912  -0.8718  -0.8607  -0.8177  -0.7979  -0.7875  -0.7823  -0.7653
 -0.7577  -0.7376  -0.7277  -0.7179  -0.6961  -0.6880  -0.6854  -0.6781
 -0.6748  -0.6611  -0.6544  -0.6470  -0.6336  -0.6301  -0.6174  -0.6137
 -0.6110  -0.6018  -0.5903  -0.5763  -0.5700  -0.5620  -0.5570  -0.5528
 -0.5369  -0.5327  -0.5310  -0.5249  -0.5122  -0.5089  -0.5058  -0.4990
 -0.4853  -0.4836  -0.4760  -0.4755  -0.4724  -0.4651  -0.4568  -0.4439
 -0.4209  -0.3959  -0.3853  -0.3671  -0.3479  -0.3095  -0.2861  -0.2166

          Ground-State Mulliken Net Atomic Charges

     Atom                 Charge (a.u.)
  ----------------------------------------
      1 C                    -0.069364
      2 C                    -0.276127
      3 S                    -0.141501
      4 C                    -0.041075
      5 H                     0.191079
      6 C                    -0.054976
      7 C                     0.223714
      8 C                     0.220197
      9 C                    -0.076230
     10 C                    -0.053756
     11 O                    -0.336025
     12 O                    -0.343301
     13 C                    -0.082594
     14 H                     0.119547
     15 H                     0.091686
     16 H                     0.092940
     17 C                    -0.086465
     18 H                     0.122595
     19 H                     0.090441
     20 H                     0.089462
     21 C                    -0.266689
     22 S                    -0.085062
     23 C                     0.013378
     24 H                     0.206809
     25 C                    -0.137346
     26 S                     0.102272
     27 C                    -0.135248
     28 C                     0.077368
     29 C                    -0.109008
     30 S                     0.044418
     31 C                    -0.153628
     32 C                     0.395826
     33 F                    -0.204633
     34 C                     0.447367
     35 O                    -0.461711
     36 O                    -0.301241
     37 C                    -0.058233
     38 H                     0.121481
     39 H                     0.095201
     40 H                     0.095477
     41 H                     0.221425
     42 H                     0.114862
     43 H                     0.112732
     44 H                     0.183932
  ----------------------------------------
  Sum of atomic charges =     0.000000

                    Cartesian Multipole Moments
 -----------------------------------------------------------------
    Charge (ESU x 10^10)
                 0.0000
    Dipole Moment (Debye)
         X       2.8714      Y       3.9992      Z       3.1599
       Tot       5.8501
    Quadrupole Moments (Debye-Ang)
        XX    -180.7707     XY       5.9122     YY    -193.2653
        XZ       3.4253     YZ      -5.7600     ZZ    -197.2225

 Total job time:  332.79s(wall), 11017.12s(cpu)
        *  Thank you very much for using Q-Chem.  Have a nice day.  *
