 Q-Chem 5.4, Q-Chem, Inc., Pleasanton, CA (2021)
 Q-Chem 5.4.0 for Intel X86 EM64T Linux

User input:
--------------------------------------------------------------
$molecule
0 1
C	-0.320589	-8.517702	0.014560
C	0.737240	-7.641575	-0.180211
S	-1.842356	-7.638634	0.299553
C	0.366488	-6.264785	-0.114873
H	1.768528	-7.966081	-0.368061
C	-1.038637	-6.072714	0.131236
C	-1.588197	-4.787049	0.253435
C	1.258831	-5.162801	-0.249014
C	0.709695	-3.874817	-0.122513
C	-0.697430	-3.683952	0.121043
O	2.553323	-5.499772	-0.505933
O	-2.888369	-4.459055	0.512697
C	-3.927625	-5.329063	0.080869
H	-4.869656	-4.755694	0.173159
H	-4.007459	-6.238095	0.716363
H	-3.789565	-5.637262	-0.978072
C	3.600064	-4.572261	-0.246949
H	4.544887	-5.139743	-0.344574
H	3.532074	-4.153131	0.779898
H	3.612378	-3.739531	-0.983261
C	-1.064246	-2.306654	0.188009
S	1.517360	-2.306501	-0.278644
C	-0.000000	-1.435185	-0.000000
H	-2.094685	-1.978138	0.373017
C	0.000000	0.000000	0.000000
S	0.783786	0.451972	1.507541
C	2.145261	1.238908	0.718873
C	0.783650	0.451572	-1.067872
C	1.986396	1.148648	-0.686410
S	0.574133	0.327317	-2.805516
C	2.088363	1.207943	-3.054530
C	2.700548	1.564221	-1.862551
F	3.855718	2.236706	-1.819088
C	2.477307	1.430318	-4.456084
O	1.814592	1.038482	-5.406510
O	3.643162	2.112042	-4.569225
C	4.074530	2.355061	-5.916207
H	5.024556	2.911627	-5.833064
H	3.322010	2.951860	-6.470168
H	4.229490	1.400910	-6.459293
H	2.944986	1.702260	1.306486
H	-0.159475	-9.143623	0.900177
H	-0.483604	-9.149441	-0.866566
H	0.194856	-1.443175	1.062246
$end

$rem
JOBTYPE		SP
EXCHANGE	HF
CORRELATION	pRIMP2
BASIS		cc-pvtz
METHOD		rimp2
AUX_BASIS	rimp2-cc-pvtz
SOLVENT_METHOD	PCM
PURECART	11111
SYMMETRY	false
MEM_TOTAL	110000
SCF_CONVERGENCE = 6
THRESH=10
GUI = 2
$end

$solvent
dielectric 4.90
$end
--------------------------------------------------------------

             Standard Nuclear Orientation (Angstroms)
    I     Atom           X                Y                Z
 ----------------------------------------------------------------
    1      C      -0.3205890000    -8.5177020000     0.0145600000
    2      C       0.7372400000    -7.6415750000    -0.1802110000
    3      S      -1.8423560000    -7.6386340000     0.2995530000
    4      C       0.3664880000    -6.2647850000    -0.1148730000
    5      H       1.7685280000    -7.9660810000    -0.3680610000
    6      C      -1.0386370000    -6.0727140000     0.1312360000
    7      C      -1.5881970000    -4.7870490000     0.2534350000
    8      C       1.2588310000    -5.1628010000    -0.2490140000
    9      C       0.7096950000    -3.8748170000    -0.1225130000
   10      C      -0.6974300000    -3.6839520000     0.1210430000
   11      O       2.5533230000    -5.4997720000    -0.5059330000
   12      O      -2.8883690000    -4.4590550000     0.5126970000
   13      C      -3.9276250000    -5.3290630000     0.0808690000
   14      H      -4.8696560000    -4.7556940000     0.1731590000
   15      H      -4.0074590000    -6.2380950000     0.7163630000
   16      H      -3.7895650000    -5.6372620000    -0.9780720000
   17      C       3.6000640000    -4.5722610000    -0.2469490000
   18      H       4.5448870000    -5.1397430000    -0.3445740000
   19      H       3.5320740000    -4.1531310000     0.7798980000
   20      H       3.6123780000    -3.7395310000    -0.9832610000
   21      C      -1.0642460000    -2.3066540000     0.1880090000
   22      S       1.5173600000    -2.3065010000    -0.2786440000
   23      C       0.0000000000    -1.4351850000     0.0000000000
   24      H      -2.0946850000    -1.9781380000     0.3730170000
   25      C       0.0000000000     0.0000000000     0.0000000000
   26      S       0.7837860000     0.4519720000     1.5075410000
   27      C       2.1452610000     1.2389080000     0.7188730000
   28      C       0.7836500000     0.4515720000    -1.0678720000
   29      C       1.9863960000     1.1486480000    -0.6864100000
   30      S       0.5741330000     0.3273170000    -2.8055160000
   31      C       2.0883630000     1.2079430000    -3.0545300000
   32      C       2.7005480000     1.5642210000    -1.8625510000
   33      F       3.8557180000     2.2367060000    -1.8190880000
   34      C       2.4773070000     1.4303180000    -4.4560840000
   35      O       1.8145920000     1.0384820000    -5.4065100000
   36      O       3.6431620000     2.1120420000    -4.5692250000
   37      C       4.0745300000     2.3550610000    -5.9162070000
   38      H       5.0245560000     2.9116270000    -5.8330640000
   39      H       3.3220100000     2.9518600000    -6.4701680000
   40      H       4.2294900000     1.4009100000    -6.4592930000
   41      H       2.9449860000     1.7022600000     1.3064860000
   42      H      -0.1594750000    -9.1436230000     0.9001770000
   43      H      -0.4836040000    -9.1494410000    -0.8665660000
   44      H       0.1948560000    -1.4431750000     1.0622460000
 ----------------------------------------------------------------

   11   -2755.2692017629      7.58e-07  Convergence criterion met
 Total energy in the final basis set =    -2755.2692017629
        RIMP2         total energy =     -2760.3720895450 a.u.

                    Orbital Energies (a.u.)
 --------------------------------------------------------------

 Alpha MOs
 -- Occupied --
-92.0136 -92.0103 -91.9712 -91.9541 -26.3474 -20.6158 -20.5855 -20.5838
-20.5622 -11.4109 -11.3887 -11.3388 -11.3216 -11.3068 -11.3016 -11.2990
-11.2896 -11.2889 -11.2830 -11.2814 -11.2799 -11.2710 -11.2690 -11.2682
-11.2665 -11.2547 -11.2480 -11.2458 -11.2284  -9.0139  -9.0099  -8.9740
 -8.9568  -6.6945  -6.6934  -6.6933  -6.6908  -6.6901  -6.6891  -6.6551
 -6.6542  -6.6530  -6.6380  -6.6371  -6.6361  -1.6643  -1.4684  -1.4077
 -1.4066  -1.3711  -1.2446  -1.1995  -1.1711  -1.1424  -1.0968  -1.0504
 -1.0417  -1.0306  -1.0006  -0.9927  -0.9678  -0.9585  -0.9466  -0.9402
 -0.8905  -0.8742  -0.8575  -0.8224  -0.7979  -0.7864  -0.7817  -0.7651
 -0.7579  -0.7394  -0.7289  -0.7186  -0.6956  -0.6899  -0.6858  -0.6775
 -0.6750  -0.6632  -0.6540  -0.6466  -0.6354  -0.6306  -0.6163  -0.6138
 -0.6104  -0.6032  -0.5893  -0.5777  -0.5699  -0.5637  -0.5581  -0.5532
 -0.5346  -0.5319  -0.5309  -0.5243  -0.5133  -0.5087  -0.5051  -0.4978
 -0.4888  -0.4819  -0.4762  -0.4750  -0.4708  -0.4610  -0.4581  -0.4434
 -0.4200  -0.3962  -0.3833  -0.3669  -0.3479  -0.3131  -0.2860  -0.2142

          Ground-State Mulliken Net Atomic Charges

     Atom                 Charge (a.u.)
  ----------------------------------------
      1 C                    -0.069007
      2 C                    -0.283242
      3 S                    -0.145127
      4 C                    -0.041512
      5 H                     0.190128
      6 C                    -0.058518
      7 C                     0.228106
      8 C                     0.220108
      9 C                    -0.071507
     10 C                    -0.056019
     11 O                    -0.335759
     12 O                    -0.343155
     13 C                    -0.082638
     14 H                     0.119210
     15 H                     0.091879
     16 H                     0.092817
     17 C                    -0.086812
     18 H                     0.122744
     19 H                     0.090274
     20 H                     0.089240
     21 C                    -0.277984
     22 S                    -0.104519
     23 C                     0.053469
     24 H                     0.204217
     25 C                    -0.173276
     26 S                     0.104517
     27 C                    -0.103050
     28 C                     0.062968
     29 C                    -0.124241
     30 S                     0.068546
     31 C                    -0.151966
     32 C                     0.400127
     33 F                    -0.203613
     34 C                     0.448581
     35 O                    -0.462146
     36 O                    -0.301471
     37 C                    -0.058140
     38 H                     0.121483
     39 H                     0.095295
     40 H                     0.095498
     41 H                     0.222244
     42 H                     0.113777
     43 H                     0.111710
     44 H                     0.186765
  ----------------------------------------
  Sum of atomic charges =     0.000000

                    Cartesian Multipole Moments
 -----------------------------------------------------------------
    Charge (ESU x 10^10)
                 0.0000
    Dipole Moment (Debye)
         X       3.8417      Y       4.1691      Z       3.0469
       Tot       6.4361
    Quadrupole Moments (Debye-Ang)
        XX    -170.7205     XY       4.9679     YY    -200.5214
        XZ      -3.1880     YZ      -2.9951     ZZ    -203.3143

 Total job time:  331.74s(wall), 10768.77s(cpu)
        *  Thank you very much for using Q-Chem.  Have a nice day.  *
