 Q-Chem 5.4, Q-Chem, Inc., Pleasanton, CA (2021)
 Q-Chem 5.4.0 for Intel X86 EM64T Linux

User input:
--------------------------------------------------------------
$molecule
0 1
C	-0.172904	-8.517702	-0.270358
C	0.524688	-7.641575	0.548363
S	-1.180599	-7.638634	-1.445750
C	0.282727	-6.264785	0.259951
H	1.203014	-7.966081	1.347559
C	-0.632972	-6.072714	-0.833868
C	-1.013580	-4.787049	-1.248701
C	0.845068	-5.162801	0.965673
C	0.460946	-3.874817	0.553357
C	-0.453541	-3.683952	-0.543470
O	1.714812	-5.499772	1.958276
O	-1.888193	-4.459055	-2.245053
C	-2.033848	-5.329063	-3.360989
H	-2.584788	-4.755694	-4.130667
H	-2.624118	-6.238095	-3.112380
H	-1.047748	-5.637262	-3.770895
C	2.013896	-4.572261	2.994272
H	2.570853	-5.139743	3.763700
H	1.090625	-4.153131	3.448815
H	2.657717	-3.739531	2.636780
C	-0.694943	-2.306654	-0.827659
S	0.999993	-2.306501	1.174750
C	0.000000	-1.435185	0.000000
H	-1.370385	-1.978138	-1.627541
C	0.000000	0.000000	0.000000
S	0.234628	0.873813	1.507541
C	0.640889	2.392969	0.718873
C	0.234815	0.873434	-1.067872
C	0.592377	2.216811	-0.686410
S	0.174526	0.637422	-2.805516
C	0.622551	2.330840	-3.054530
C	0.803505	3.015647	-1.862551
F	1.144815	4.307994	-1.819088
C	0.740334	2.763108	-4.456084
O	0.548793	2.017428	-5.406510
O	1.082665	4.069544	-4.569225
C	1.215848	4.546407	-5.916207
H	1.494066	5.611729	-5.833064
H	0.261736	4.436296	-6.470168
H	2.000108	3.981294	-6.459293
H	0.878739	3.286099	1.306486
H	-0.859314	-9.143623	0.311979
H	0.508666	-9.149441	-0.852097
H	-0.822504	-1.443175	0.699874
$end

$rem
JOBTYPE		SP
EXCHANGE	HF
CORRELATION	pRIMP2
BASIS		cc-pvtz
METHOD		rimp2
AUX_BASIS	rimp2-cc-pvtz
SOLVENT_METHOD	PCM
PURECART	11111
SYMMETRY	false
MEM_TOTAL	110000
SCF_CONVERGENCE = 6
THRESH=10
GUI = 2
$end

$solvent
dielectric 4.90
$end
--------------------------------------------------------------

             Standard Nuclear Orientation (Angstroms)
    I     Atom           X                Y                Z
 ----------------------------------------------------------------
    1      C      -0.1729040000    -8.5177020000    -0.2703580000
    2      C       0.5246880000    -7.6415750000     0.5483630000
    3      S      -1.1805990000    -7.6386340000    -1.4457500000
    4      C       0.2827270000    -6.2647850000     0.2599510000
    5      H       1.2030140000    -7.9660810000     1.3475590000
    6      C      -0.6329720000    -6.0727140000    -0.8338680000
    7      C      -1.0135800000    -4.7870490000    -1.2487010000
    8      C       0.8450680000    -5.1628010000     0.9656730000
    9      C       0.4609460000    -3.8748170000     0.5533570000
   10      C      -0.4535410000    -3.6839520000    -0.5434700000
   11      O       1.7148120000    -5.4997720000     1.9582760000
   12      O      -1.8881930000    -4.4590550000    -2.2450530000
   13      C      -2.0338480000    -5.3290630000    -3.3609890000
   14      H      -2.5847880000    -4.7556940000    -4.1306670000
   15      H      -2.6241180000    -6.2380950000    -3.1123800000
   16      H      -1.0477480000    -5.6372620000    -3.7708950000
   17      C       2.0138960000    -4.5722610000     2.9942720000
   18      H       2.5708530000    -5.1397430000     3.7637000000
   19      H       1.0906250000    -4.1531310000     3.4488150000
   20      H       2.6577170000    -3.7395310000     2.6367800000
   21      C      -0.6949430000    -2.3066540000    -0.8276590000
   22      S       0.9999930000    -2.3065010000     1.1747500000
   23      C       0.0000000000    -1.4351850000     0.0000000000
   24      H      -1.3703850000    -1.9781380000    -1.6275410000
   25      C       0.0000000000     0.0000000000     0.0000000000
   26      S       0.2346280000     0.8738130000     1.5075410000
   27      C       0.6408890000     2.3929690000     0.7188730000
   28      C       0.2348150000     0.8734340000    -1.0678720000
   29      C       0.5923770000     2.2168110000    -0.6864100000
   30      S       0.1745260000     0.6374220000    -2.8055160000
   31      C       0.6225510000     2.3308400000    -3.0545300000
   32      C       0.8035050000     3.0156470000    -1.8625510000
   33      F       1.1448150000     4.3079940000    -1.8190880000
   34      C       0.7403340000     2.7631080000    -4.4560840000
   35      O       0.5487930000     2.0174280000    -5.4065100000
   36      O       1.0826650000     4.0695440000    -4.5692250000
   37      C       1.2158480000     4.5464070000    -5.9162070000
   38      H       1.4940660000     5.6117290000    -5.8330640000
   39      H       0.2617360000     4.4362960000    -6.4701680000
   40      H       2.0001080000     3.9812940000    -6.4592930000
   41      H       0.8787390000     3.2860990000     1.3064860000
   42      H      -0.8593140000    -9.1436230000     0.3119790000
   43      H       0.5086660000    -9.1494410000    -0.8520970000
   44      H      -0.8225040000    -1.4431750000     0.6998740000
 ----------------------------------------------------------------

   11   -2755.3395441870      8.44e-07  Convergence criterion met
 Total energy in the final basis set =    -2755.3395441870
        RIMP2         total energy =     -2760.4290476550 a.u.

                    Orbital Energies (a.u.)
 --------------------------------------------------------------

 Alpha MOs
 -- Occupied --
-92.0159 -91.9975 -91.9798 -91.9581 -26.3433 -20.6151 -20.5874 -20.5870
-20.5617 -11.4097 -11.3823 -11.3091 -11.3086 -11.3079 -11.3036 -11.2983
-11.2966 -11.2890 -11.2850 -11.2850 -11.2838 -11.2823 -11.2806 -11.2735
-11.2728 -11.2583 -11.2582 -11.2496 -11.2367  -9.0147  -8.9976  -8.9820
 -8.9607  -6.6955  -6.6950  -6.6944  -6.6786  -6.6779  -6.6768  -6.6631
 -6.6622  -6.6609  -6.6419  -6.6410  -6.6400  -1.6604  -1.4675  -1.4108
 -1.4088  -1.3703  -1.2294  -1.2030  -1.1738  -1.1378  -1.1001  -1.0465
 -1.0447  -1.0242  -1.0041  -0.9977  -0.9629  -0.9593  -0.9485  -0.9404
 -0.8942  -0.8690  -0.8663  -0.8114  -0.8007  -0.7889  -0.7845  -0.7677
 -0.7567  -0.7378  -0.7253  -0.7157  -0.6981  -0.6870  -0.6848  -0.6802
 -0.6741  -0.6614  -0.6565  -0.6486  -0.6363  -0.6311  -0.6199  -0.6148
 -0.6120  -0.5991  -0.5924  -0.5760  -0.5716  -0.5648  -0.5587  -0.5522
 -0.5486  -0.5340  -0.5311  -0.5287  -0.5138  -0.5079  -0.5077  -0.5013
 -0.4852  -0.4807  -0.4770  -0.4745  -0.4728  -0.4686  -0.4599  -0.4462
 -0.4293  -0.3962  -0.3859  -0.3702  -0.3513  -0.2997  -0.2887  -0.2183

          Ground-State Mulliken Net Atomic Charges

     Atom                 Charge (a.u.)
  ----------------------------------------
      1 C                    -0.070087
      2 C                    -0.261342
      3 S                    -0.135272
      4 C                    -0.044068
      5 H                     0.193279
      6 C                    -0.051875
      7 C                     0.223750
      8 C                     0.223297
      9 C                    -0.075881
     10 C                    -0.050669
     11 O                    -0.334422
     12 O                    -0.343646
     13 C                    -0.082810
     14 H                     0.120619
     15 H                     0.092009
     16 H                     0.093095
     17 C                    -0.087648
     18 H                     0.123684
     19 H                     0.092071
     20 H                     0.090178
     21 C                    -0.271650
     22 S                    -0.078784
     23 C                     0.089451
     24 H                     0.209824
     25 C                    -0.108716
     26 S                     0.074929
     27 C                    -0.182580
     28 C                     0.051711
     29 C                    -0.121921
     30 S                     0.001703
     31 C                    -0.155754
     32 C                     0.400077
     33 F                    -0.207124
     34 C                     0.444586
     35 O                    -0.460339
     36 O                    -0.300637
     37 C                    -0.058488
     38 H                     0.121436
     39 H                     0.095082
     40 H                     0.095237
     41 H                     0.218464
     42 H                     0.117159
     43 H                     0.114931
     44 H                     0.197143
  ----------------------------------------
  Sum of atomic charges =     0.000000

                    Cartesian Multipole Moments
 -----------------------------------------------------------------
    Charge (ESU x 10^10)
                 0.0000
    Dipole Moment (Debye)
         X       0.3111      Y       2.6548      Z       3.4954
       Tot       4.4003
    Quadrupole Moments (Debye-Ang)
        XX    -198.4499     XY       1.5593     YY    -175.7853
        XZ       4.3621     YZ     -10.2373     ZZ    -190.0915

 Total job time:  395.95s(wall), 11277.07s(cpu)
        *  Thank you very much for using Q-Chem.  Have a nice day.  *
