 Q-Chem 5.4, Q-Chem, Inc., Pleasanton, CA (2021)
 Q-Chem 5.4.0 for Intel X86 EM64T Linux

User input:
--------------------------------------------------------------
$molecule
0 1
C	-8.167226	-2.432520	0.183044
C	-7.587861	-1.172922	0.135229
S	-6.929051	-3.711455	0.214706
C	-6.160688	-1.193414	0.129318
H	-8.164146	-0.239596	0.104494
C	-5.618003	-2.525433	0.184595
C	-4.232676	-2.749632	0.162515
C	-5.319407	-0.046586	0.054013
C	-3.931773	-0.270708	0.027604
C	-3.389860	-1.604383	0.085819
O	-5.975470	1.146932	0.035008
O	-3.583811	-3.951253	0.180574
C	-4.186106	-5.060472	0.836558
H	-3.394622	-5.827265	0.937915
H	-5.021912	-5.496036	0.246408
H	-4.559633	-4.785008	1.846509
C	-5.326042	2.313799	-0.454564
H	-6.112722	3.085819	-0.551391
H	-4.863666	2.138997	-1.449733
H	-4.551334	2.687606	0.249596
C	-1.963105	-1.621368	0.077474
S	-2.618909	0.917090	-0.015288
C	-1.389574	-0.358284	0.021758
H	-1.383257	-2.552295	0.110744
C	0.000000	0.000000	0.000000
S	1.252980	-1.232575	0.045586
C	2.578335	-0.076997	-0.008758
C	0.608670	1.258837	-0.056806
C	2.050035	1.236941	-0.060445
S	-0.061688	2.878939	-0.124860
C	1.572075	3.557366	-0.155765
C	2.555947	2.581151	-0.116789
F	3.861007	2.872992	-0.130530
C	1.655382	5.025022	-0.220019
O	0.672303	5.751959	-0.254008
O	2.934727	5.471940	-0.237523
C	3.077230	6.898410	-0.303657
H	4.164092	7.093135	-0.310071
H	2.600892	7.383796	0.572032
H	2.605139	7.300081	-1.222977
H	3.620163	-0.414671	0.001941
H	-8.778767	-2.622025	-0.706988
H	-8.772732	-2.559719	1.088160
H	-1.404319	-0.398637	-1.057387
$end

$rem
JOBTYPE		SP
EXCHANGE	HF
CORRELATION	pRIMP2
BASIS		cc-pvtz
METHOD		rimp2
AUX_BASIS	rimp2-cc-pvtz
SOLVENT_METHOD	PCM
PURECART	11111
SYMMETRY	false
MEM_TOTAL	110000
SCF_CONVERGENCE = 6
THRESH=10
GUI = 2
$end

$solvent
dielectric 4.90
$end
--------------------------------------------------------------

             Standard Nuclear Orientation (Angstroms)
    I     Atom           X                Y                Z
 ----------------------------------------------------------------
    1      C      -8.1672260000    -2.4325200000     0.1830440000
    2      C      -7.5878610000    -1.1729220000     0.1352290000
    3      S      -6.9290510000    -3.7114550000     0.2147060000
    4      C      -6.1606880000    -1.1934140000     0.1293180000
    5      H      -8.1641460000    -0.2395960000     0.1044940000
    6      C      -5.6180030000    -2.5254330000     0.1845950000
    7      C      -4.2326760000    -2.7496320000     0.1625150000
    8      C      -5.3194070000    -0.0465860000     0.0540130000
    9      C      -3.9317730000    -0.2707080000     0.0276040000
   10      C      -3.3898600000    -1.6043830000     0.0858190000
   11      O      -5.9754700000     1.1469320000     0.0350080000
   12      O      -3.5838110000    -3.9512530000     0.1805740000
   13      C      -4.1861060000    -5.0604720000     0.8365580000
   14      H      -3.3946220000    -5.8272650000     0.9379150000
   15      H      -5.0219120000    -5.4960360000     0.2464080000
   16      H      -4.5596330000    -4.7850080000     1.8465090000
   17      C      -5.3260420000     2.3137990000    -0.4545640000
   18      H      -6.1127220000     3.0858190000    -0.5513910000
   19      H      -4.8636660000     2.1389970000    -1.4497330000
   20      H      -4.5513340000     2.6876060000     0.2495960000
   21      C      -1.9631050000    -1.6213680000     0.0774740000
   22      S      -2.6189090000     0.9170900000    -0.0152880000
   23      C      -1.3895740000    -0.3582840000     0.0217580000
   24      H      -1.3832570000    -2.5522950000     0.1107440000
   25      C       0.0000000000     0.0000000000     0.0000000000
   26      S       1.2529800000    -1.2325750000     0.0455860000
   27      C       2.5783350000    -0.0769970000    -0.0087580000
   28      C       0.6086700000     1.2588370000    -0.0568060000
   29      C       2.0500350000     1.2369410000    -0.0604450000
   30      S      -0.0616880000     2.8789390000    -0.1248600000
   31      C       1.5720750000     3.5573660000    -0.1557650000
   32      C       2.5559470000     2.5811510000    -0.1167890000
   33      F       3.8610070000     2.8729920000    -0.1305300000
   34      C       1.6553820000     5.0250220000    -0.2200190000
   35      O       0.6723030000     5.7519590000    -0.2540080000
   36      O       2.9347270000     5.4719400000    -0.2375230000
   37      C       3.0772300000     6.8984100000    -0.3036570000
   38      H       4.1640920000     7.0931350000    -0.3100710000
   39      H       2.6008920000     7.3837960000     0.5720320000
   40      H       2.6051390000     7.3000810000    -1.2229770000
   41      H       3.6201630000    -0.4146710000     0.0019410000
   42      H      -8.7787670000    -2.6220250000    -0.7069880000
   43      H      -8.7727320000    -2.5597190000     1.0881600000
   44      H      -1.4043190000    -0.3986370000    -1.0573870000
 ----------------------------------------------------------------

   11   -2755.3427280954      8.60e-07  Convergence criterion met
 Total energy in the final basis set =    -2755.3427280954
        RIMP2         total energy =     -2760.4336587475 a.u.

                    Orbital Energies (a.u.)
 --------------------------------------------------------------

 Alpha MOs
 -- Occupied --
-92.0138 -91.9937 -91.9812 -91.9603 -26.3417 -20.6146 -20.5889 -20.5884
-20.5611 -11.4090 -11.3800 -11.3127 -11.3113 -11.3104 -11.2984 -11.2971
-11.2905 -11.2886 -11.2856 -11.2851 -11.2849 -11.2840 -11.2838 -11.2759
-11.2736 -11.2624 -11.2601 -11.2517 -11.2413  -9.0126  -8.9941  -8.9836
 -8.9629  -6.6934  -6.6928  -6.6922  -6.6751  -6.6744  -6.6732  -6.6647
 -6.6639  -6.6626  -6.6441  -6.6431  -6.6421  -1.6589  -1.4670  -1.4122
 -1.4103  -1.3697  -1.2299  -1.2030  -1.1759  -1.1368  -1.1018  -1.0491
 -1.0438  -1.0237  -1.0053  -0.9986  -0.9636  -0.9570  -0.9499  -0.9421
 -0.8954  -0.8700  -0.8654  -0.8152  -0.7926  -0.7905  -0.7850  -0.7704
 -0.7566  -0.7377  -0.7239  -0.7109  -0.6970  -0.6936  -0.6844  -0.6818
 -0.6735  -0.6639  -0.6569  -0.6498  -0.6389  -0.6318  -0.6219  -0.6163
 -0.6113  -0.5997  -0.5934  -0.5766  -0.5715  -0.5667  -0.5605  -0.5568
 -0.5499  -0.5323  -0.5315  -0.5274  -0.5165  -0.5121  -0.5086  -0.5012
 -0.4849  -0.4794  -0.4762  -0.4741  -0.4706  -0.4657  -0.4601  -0.4483
 -0.4327  -0.3985  -0.3837  -0.3728  -0.3504  -0.3002  -0.2863  -0.2185

          Ground-State Mulliken Net Atomic Charges

     Atom                 Charge (a.u.)
  ----------------------------------------
      1 C                    -0.070742
      2 C                    -0.246527
      3 S                    -0.131525
      4 C                    -0.051684
      5 H                     0.195222
      6 C                    -0.048477
      7 C                     0.221392
      8 C                     0.233926
      9 C                    -0.064992
     10 C                    -0.022232
     11 O                    -0.333657
     12 O                    -0.344224
     13 C                    -0.082807
     14 H                     0.120209
     15 H                     0.092394
     16 H                     0.093262
     17 C                    -0.090399
     18 H                     0.125389
     19 H                     0.093770
     20 H                     0.092146
     21 C                    -0.342102
     22 S                    -0.121720
     23 C                     0.198590
     24 H                     0.194612
     25 C                    -0.032636
     26 S                     0.071825
     27 C                    -0.219347
     28 C                    -0.022807
     29 C                    -0.127087
     30 S                    -0.014775
     31 C                    -0.167494
     32 C                     0.414434
     33 F                    -0.208825
     34 C                     0.441360
     35 O                    -0.460777
     36 O                    -0.300423
     37 C                    -0.058983
     38 H                     0.121425
     39 H                     0.095237
     40 H                     0.094963
     41 H                     0.216882
     42 H                     0.119138
     43 H                     0.116888
     44 H                     0.211176
  ----------------------------------------
  Sum of atomic charges =     0.000000

                    Cartesian Multipole Moments
 -----------------------------------------------------------------
    Charge (ESU x 10^10)
                 0.0000
    Dipole Moment (Debye)
         X       1.7305      Y      -2.4178      Z      -0.5723
       Tot       3.0278
    Quadrupole Moments (Debye-Ang)
        XX    -170.9594     XY       8.0665     YY    -187.3324
        XZ       0.9634     YZ      -6.0262     ZZ    -199.5162

 Total job time:  334.71s(wall), 10716.43s(cpu)
        *  Thank you very much for using Q-Chem.  Have a nice day.  *
