 Q-Chem 5.4, Q-Chem, Inc., Pleasanton, CA (2021)
 Q-Chem 5.4.0 for Intel X86 EM64T Linux

User input:
--------------------------------------------------------------
$molecule
0 1
C	0.313191	-8.517702	-0.070009
C	-0.694746	-7.641575	0.305494
S	1.762350	-7.638634	-0.614924
C	-0.340973	-6.264785	0.176768
H	-1.677747	-7.966081	0.669571
C	1.000069	-6.072714	-0.309600
C	1.520060	-4.787049	-0.525372
C	-1.196466	-5.162801	0.463825
C	-0.677639	-3.874817	0.243888
C	0.665815	-3.683952	-0.240312
O	-2.426678	-5.499772	0.941626
O	2.755460	-4.459055	-1.006468
C	3.853913	-5.329063	-0.761666
H	4.765607	-4.755694	-1.016135
H	3.822182	-6.238095	-1.401368
H	3.901833	-5.637262	0.305161
C	-3.502489	-4.572261	0.868342
H	-4.416005	-5.139743	1.128551
H	-3.613841	-4.153131	-0.154712
H	-3.386756	-3.739531	1.595605
C	1.015430	-2.306654	-0.369957
S	-1.445922	-2.306501	0.537898
C	-0.000000	-1.435185	-0.000000
H	1.998088	-1.978138	-0.731088
C	0.000000	0.000000	0.000000
S	0.309893	0.850039	1.507541
C	0.847011	2.328006	0.718873
C	0.310046	0.849645	-1.067872
C	0.783331	2.156746	-0.686410
S	0.229416	0.619785	-2.805516
C	0.823328	2.267711	-3.054530
C	1.063278	2.934142	-1.862551
F	1.515925	4.191824	-1.819088
C	0.978337	2.688069	-4.456084
O	0.722535	1.961921	-5.406510
O	1.433229	3.959697	-4.569225
C	1.607467	4.423139	-5.916207
H	1.977475	5.460158	-5.833064
H	0.647388	4.396602	-6.470168
H	2.339490	3.791823	-6.459293
H	1.161798	3.197007	1.306486
H	0.000738	-9.143623	-0.914194
H	0.626735	-9.149441	0.769424
H	-0.376353	-1.443175	-1.012272
$end

$rem
JOBTYPE		SP
EXCHANGE	HF
CORRELATION	pRIMP2
BASIS		cc-pvtz
METHOD		rimp2
AUX_BASIS	rimp2-cc-pvtz
SOLVENT_METHOD	PCM
PURECART	11111
SYMMETRY	false
MEM_TOTAL	110000
SCF_CONVERGENCE = 6
THRESH=10
GUI = 2
$end

$solvent
dielectric 4.90
$end
--------------------------------------------------------------

             Standard Nuclear Orientation (Angstroms)
    I     Atom           X                Y                Z
 ----------------------------------------------------------------
    1      C       0.3131910000    -8.5177020000    -0.0700090000
    2      C      -0.6947460000    -7.6415750000     0.3054940000
    3      S       1.7623500000    -7.6386340000    -0.6149240000
    4      C      -0.3409730000    -6.2647850000     0.1767680000
    5      H      -1.6777470000    -7.9660810000     0.6695710000
    6      C       1.0000690000    -6.0727140000    -0.3096000000
    7      C       1.5200600000    -4.7870490000    -0.5253720000
    8      C      -1.1964660000    -5.1628010000     0.4638250000
    9      C      -0.6776390000    -3.8748170000     0.2438880000
   10      C       0.6658150000    -3.6839520000    -0.2403120000
   11      O      -2.4266780000    -5.4997720000     0.9416260000
   12      O       2.7554600000    -4.4590550000    -1.0064680000
   13      C       3.8539130000    -5.3290630000    -0.7616660000
   14      H       4.7656070000    -4.7556940000    -1.0161350000
   15      H       3.8221820000    -6.2380950000    -1.4013680000
   16      H       3.9018330000    -5.6372620000     0.3051610000
   17      C      -3.5024890000    -4.5722610000     0.8683420000
   18      H      -4.4160050000    -5.1397430000     1.1285510000
   19      H      -3.6138410000    -4.1531310000    -0.1547120000
   20      H      -3.3867560000    -3.7395310000     1.5956050000
   21      C       1.0154300000    -2.3066540000    -0.3699570000
   22      S      -1.4459220000    -2.3065010000     0.5378980000
   23      C       0.0000000000    -1.4351850000     0.0000000000
   24      H       1.9980880000    -1.9781380000    -0.7310880000
   25      C       0.0000000000     0.0000000000     0.0000000000
   26      S       0.3098930000     0.8500390000     1.5075410000
   27      C       0.8470110000     2.3280060000     0.7188730000
   28      C       0.3100460000     0.8496450000    -1.0678720000
   29      C       0.7833310000     2.1567460000    -0.6864100000
   30      S       0.2294160000     0.6197850000    -2.8055160000
   31      C       0.8233280000     2.2677110000    -3.0545300000
   32      C       1.0632780000     2.9341420000    -1.8625510000
   33      F       1.5159250000     4.1918240000    -1.8190880000
   34      C       0.9783370000     2.6880690000    -4.4560840000
   35      O       0.7225350000     1.9619210000    -5.4065100000
   36      O       1.4332290000     3.9596970000    -4.5692250000
   37      C       1.6074670000     4.4231390000    -5.9162070000
   38      H       1.9774750000     5.4601580000    -5.8330640000
   39      H       0.6473880000     4.3966020000    -6.4701680000
   40      H       2.3394900000     3.7918230000    -6.4592930000
   41      H       1.1617980000     3.1970070000     1.3064860000
   42      H       0.0007380000    -9.1436230000    -0.9141940000
   43      H       0.6267350000    -9.1494410000     0.7694240000
   44      H      -0.3763530000    -1.4431750000    -1.0122720000
 ----------------------------------------------------------------

   11   -2755.3414785697      6.82e-07  Convergence criterion met
 Total energy in the final basis set =    -2755.3414785697
        RIMP2         total energy =     -2760.4309991459 a.u.

                    Orbital Energies (a.u.)
 --------------------------------------------------------------

 Alpha MOs
 -- Occupied --
-92.0110 -92.0013 -91.9764 -91.9580 -26.3448 -20.6155 -20.5870 -20.5866
-20.5620 -11.4103 -11.3846 -11.3135 -11.3089 -11.3067 -11.3059 -11.2989
-11.2989 -11.2893 -11.2859 -11.2842 -11.2826 -11.2824 -11.2799 -11.2726
-11.2718 -11.2579 -11.2574 -11.2495 -11.2365  -9.0101  -9.0014  -8.9786
 -8.9606  -6.6908  -6.6902  -6.6897  -6.6824  -6.6817  -6.6805  -6.6598
 -6.6589  -6.6576  -6.6418  -6.6409  -6.6399  -1.6618  -1.4680  -1.4101
 -1.4087  -1.3707  -1.2306  -1.2023  -1.1732  -1.1374  -1.1006  -1.0469
 -1.0455  -1.0239  -1.0030  -0.9969  -0.9627  -0.9589  -0.9485  -0.9416
 -0.8930  -0.8713  -0.8644  -0.8126  -0.7973  -0.7903  -0.7841  -0.7676
 -0.7590  -0.7354  -0.7266  -0.7104  -0.7008  -0.6949  -0.6854  -0.6798
 -0.6745  -0.6650  -0.6554  -0.6483  -0.6355  -0.6302  -0.6198  -0.6147
 -0.6115  -0.5994  -0.5926  -0.5775  -0.5711  -0.5657  -0.5576  -0.5544
 -0.5474  -0.5317  -0.5291  -0.5261  -0.5128  -0.5088  -0.5070  -0.5016
 -0.4851  -0.4817  -0.4760  -0.4747  -0.4693  -0.4685  -0.4603  -0.4460
 -0.4225  -0.4005  -0.3846  -0.3698  -0.3511  -0.3030  -0.2890  -0.2203

          Ground-State Mulliken Net Atomic Charges

     Atom                 Charge (a.u.)
  ----------------------------------------
      1 C                    -0.070270
      2 C                    -0.260952
      3 S                    -0.135542
      4 C                    -0.045182
      5 H                     0.193213
      6 C                    -0.052871
      7 C                     0.221883
      8 C                     0.230499
      9 C                    -0.083921
     10 C                    -0.044788
     11 O                    -0.335394
     12 O                    -0.343063
     13 C                    -0.082676
     14 H                     0.120011
     15 H                     0.092165
     16 H                     0.092559
     17 C                    -0.086262
     18 H                     0.123011
     19 H                     0.092398
     20 H                     0.090076
     21 C                    -0.257291
     22 S                    -0.071393
     23 C                     0.062704
     24 H                     0.208682
     25 C                    -0.069163
     26 S                     0.088941
     27 C                    -0.177022
     28 C                    -0.023485
     29 C                    -0.096407
     30 S                     0.010362
     31 C                    -0.157920
     32 C                     0.397678
     33 F                    -0.205432
     34 C                     0.445978
     35 O                    -0.460971
     36 O                    -0.300942
     37 C                    -0.058378
     38 H                     0.121509
     39 H                     0.095277
     40 H                     0.095228
     41 H                     0.217653
     42 H                     0.117239
     43 H                     0.114808
     44 H                     0.187451
  ----------------------------------------
  Sum of atomic charges =     0.000000

                    Cartesian Multipole Moments
 -----------------------------------------------------------------
    Charge (ESU x 10^10)
                 0.0000
    Dipole Moment (Debye)
         X       0.7451      Y       2.9867      Z       2.3596
       Tot       3.8786
    Quadrupole Moments (Debye-Ang)
        XX    -181.5132     XY       8.7508     YY    -176.7963
        XZ      -2.8680     YZ      -8.5165     ZZ    -206.2533

 Total job time:  351.08s(wall), 10927.37s(cpu)
        *  Thank you very much for using Q-Chem.  Have a nice day.  *
