 Q-Chem 5.4, Q-Chem, Inc., Pleasanton, CA (2021)
 Q-Chem 5.4.0 for Intel X86 EM64T Linux

User input:
--------------------------------------------------------------
$molecule
0 1
C	-0.313191	-8.517702	0.070009
C	0.694746	-7.641575	-0.305494
S	-1.762350	-7.638634	0.614924
C	0.340973	-6.264785	-0.176768
H	1.677747	-7.966081	-0.669571
C	-1.000069	-6.072714	0.309600
C	-1.520060	-4.787049	0.525372
C	1.196466	-5.162801	-0.463825
C	0.677639	-3.874817	-0.243888
C	-0.665815	-3.683952	0.240312
O	2.426678	-5.499772	-0.941626
O	-2.755460	-4.459055	1.006468
C	-3.853913	-5.329063	0.761666
H	-4.765607	-4.755694	1.016135
H	-3.822182	-6.238095	1.401368
H	-3.901833	-5.637262	-0.305161
C	3.502489	-4.572261	-0.868342
H	4.416005	-5.139743	-1.128551
H	3.613841	-4.153131	0.154712
H	3.386756	-3.739531	-1.595605
C	-1.015430	-2.306654	0.369957
S	1.445922	-2.306501	-0.537898
C	-0.000000	-1.435185	-0.000000
H	-1.998088	-1.978138	0.731088
C	0.000000	0.000000	0.000000
S	0.783786	0.451972	1.507541
C	2.145261	1.238908	0.718873
C	0.783650	0.451572	-1.067872
C	1.986396	1.148648	-0.686410
S	0.574133	0.327317	-2.805516
C	2.088363	1.207943	-3.054530
C	2.700548	1.564221	-1.862551
F	3.855718	2.236706	-1.819088
C	2.477307	1.430318	-4.456084
O	1.814592	1.038482	-5.406510
O	3.643162	2.112042	-4.569225
C	4.074530	2.355061	-5.916207
H	5.024556	2.911627	-5.833064
H	3.322010	2.951860	-6.470168
H	4.229490	1.400910	-6.459293
H	2.944986	1.702260	1.306486
H	-0.000738	-9.143623	0.914194
H	-0.626735	-9.149441	-0.769424
H	0.376353	-1.443175	1.012272
$end

$rem
JOBTYPE		SP
EXCHANGE	HF
CORRELATION	pRIMP2
BASIS		cc-pvtz
METHOD		rimp2
AUX_BASIS	rimp2-cc-pvtz
SOLVENT_METHOD	PCM
PURECART	11111
SYMMETRY	false
MEM_TOTAL	110000
SCF_CONVERGENCE = 6
THRESH=10
GUI = 2
$end

$solvent
dielectric 4.90
$end
--------------------------------------------------------------

             Standard Nuclear Orientation (Angstroms)
    I     Atom           X                Y                Z
 ----------------------------------------------------------------
    1      C      -0.3131910000    -8.5177020000     0.0700090000
    2      C       0.6947460000    -7.6415750000    -0.3054940000
    3      S      -1.7623500000    -7.6386340000     0.6149240000
    4      C       0.3409730000    -6.2647850000    -0.1767680000
    5      H       1.6777470000    -7.9660810000    -0.6695710000
    6      C      -1.0000690000    -6.0727140000     0.3096000000
    7      C      -1.5200600000    -4.7870490000     0.5253720000
    8      C       1.1964660000    -5.1628010000    -0.4638250000
    9      C       0.6776390000    -3.8748170000    -0.2438880000
   10      C      -0.6658150000    -3.6839520000     0.2403120000
   11      O       2.4266780000    -5.4997720000    -0.9416260000
   12      O      -2.7554600000    -4.4590550000     1.0064680000
   13      C      -3.8539130000    -5.3290630000     0.7616660000
   14      H      -4.7656070000    -4.7556940000     1.0161350000
   15      H      -3.8221820000    -6.2380950000     1.4013680000
   16      H      -3.9018330000    -5.6372620000    -0.3051610000
   17      C       3.5024890000    -4.5722610000    -0.8683420000
   18      H       4.4160050000    -5.1397430000    -1.1285510000
   19      H       3.6138410000    -4.1531310000     0.1547120000
   20      H       3.3867560000    -3.7395310000    -1.5956050000
   21      C      -1.0154300000    -2.3066540000     0.3699570000
   22      S       1.4459220000    -2.3065010000    -0.5378980000
   23      C       0.0000000000    -1.4351850000     0.0000000000
   24      H      -1.9980880000    -1.9781380000     0.7310880000
   25      C       0.0000000000     0.0000000000     0.0000000000
   26      S       0.7837860000     0.4519720000     1.5075410000
   27      C       2.1452610000     1.2389080000     0.7188730000
   28      C       0.7836500000     0.4515720000    -1.0678720000
   29      C       1.9863960000     1.1486480000    -0.6864100000
   30      S       0.5741330000     0.3273170000    -2.8055160000
   31      C       2.0883630000     1.2079430000    -3.0545300000
   32      C       2.7005480000     1.5642210000    -1.8625510000
   33      F       3.8557180000     2.2367060000    -1.8190880000
   34      C       2.4773070000     1.4303180000    -4.4560840000
   35      O       1.8145920000     1.0384820000    -5.4065100000
   36      O       3.6431620000     2.1120420000    -4.5692250000
   37      C       4.0745300000     2.3550610000    -5.9162070000
   38      H       5.0245560000     2.9116270000    -5.8330640000
   39      H       3.3220100000     2.9518600000    -6.4701680000
   40      H       4.2294900000     1.4009100000    -6.4592930000
   41      H       2.9449860000     1.7022600000     1.3064860000
   42      H      -0.0007380000    -9.1436230000     0.9141940000
   43      H      -0.6267350000    -9.1494410000    -0.7694240000
   44      H       0.3763530000    -1.4431750000     1.0122720000
 ----------------------------------------------------------------

   11   -2755.2648929806      8.08e-07  Convergence criterion met
 Total energy in the final basis set =    -2755.2648929806
        RIMP2         total energy =     -2760.3692067699 a.u.

                    Orbital Energies (a.u.)
 --------------------------------------------------------------

 Alpha MOs
 -- Occupied --
-92.0132 -92.0096 -91.9723 -91.9540 -26.3474 -20.6159 -20.5855 -20.5834
-20.5623 -11.4110 -11.3887 -11.3391 -11.3217 -11.3068 -11.3009 -11.2992
-11.2897 -11.2893 -11.2829 -11.2814 -11.2799 -11.2714 -11.2699 -11.2681
-11.2664 -11.2545 -11.2480 -11.2455 -11.2275  -9.0137  -9.0093  -8.9750
 -8.9566  -6.6943  -6.6932  -6.6931  -6.6902  -6.6894  -6.6884  -6.6561
 -6.6552  -6.6539  -6.6379  -6.6370  -6.6359  -1.6643  -1.4685  -1.4077
 -1.4064  -1.3712  -1.2457  -1.1995  -1.1710  -1.1426  -1.0969  -1.0505
 -1.0416  -1.0312  -1.0006  -0.9927  -0.9682  -0.9581  -0.9466  -0.9403
 -0.8905  -0.8742  -0.8573  -0.8229  -0.7976  -0.7864  -0.7814  -0.7651
 -0.7579  -0.7398  -0.7290  -0.7184  -0.6954  -0.6905  -0.6859  -0.6776
 -0.6751  -0.6637  -0.6540  -0.6466  -0.6362  -0.6307  -0.6161  -0.6139
 -0.6102  -0.6033  -0.5892  -0.5778  -0.5706  -0.5653  -0.5581  -0.5534
 -0.5352  -0.5321  -0.5311  -0.5247  -0.5135  -0.5089  -0.5051  -0.4976
 -0.4894  -0.4813  -0.4763  -0.4746  -0.4695  -0.4623  -0.4569  -0.4435
 -0.4228  -0.3957  -0.3807  -0.3667  -0.3505  -0.3115  -0.2858  -0.2129

          Ground-State Mulliken Net Atomic Charges

     Atom                 Charge (a.u.)
  ----------------------------------------
      1 C                    -0.068737
      2 C                    -0.286332
      3 S                    -0.145542
      4 C                    -0.041180
      5 H                     0.189790
      6 C                    -0.057532
      7 C                     0.226106
      8 C                     0.217880
      9 C                    -0.069299
     10 C                    -0.051790
     11 O                    -0.335897
     12 O                    -0.343360
     13 C                    -0.082638
     14 H                     0.119127
     15 H                     0.091962
     16 H                     0.092808
     17 C                    -0.087271
     18 H                     0.122856
     19 H                     0.090181
     20 H                     0.089267
     21 C                    -0.286318
     22 S                    -0.105493
     23 C                     0.074432
     24 H                     0.203550
     25 C                    -0.176668
     26 S                     0.100500
     27 C                    -0.102443
     28 C                     0.054138
     29 C                    -0.124051
     30 S                     0.072958
     31 C                    -0.151028
     32 C                     0.401514
     33 F                    -0.203829
     34 C                     0.448117
     35 O                    -0.461912
     36 O                    -0.301430
     37 C                    -0.058146
     38 H                     0.121502
     39 H                     0.095344
     40 H                     0.095475
     41 H                     0.222369
     42 H                     0.113409
     43 H                     0.111351
     44 H                     0.186257
  ----------------------------------------
  Sum of atomic charges =     0.000000

                    Cartesian Multipole Moments
 -----------------------------------------------------------------
    Charge (ESU x 10^10)
                 0.0000
    Dipole Moment (Debye)
         X       3.9138      Y       4.2783      Z       3.0120
       Tot       6.5340
    Quadrupole Moments (Debye-Ang)
        XX    -170.2277     XY       5.1503     YY    -201.8203
        XZ      -6.3034     YZ      -2.3891     ZZ    -203.7698

 Total job time:  338.95s(wall), 11231.46s(cpu)
        *  Thank you very much for using Q-Chem.  Have a nice day.  *
