 Q-Chem 5.4, Q-Chem, Inc., Pleasanton, CA (2021)
 Q-Chem 5.4.0 for Intel X86 EM64T Linux

User input:
--------------------------------------------------------------
$molecule
0 1
C	0.172904	-8.517702	0.270358
C	-0.524688	-7.641575	-0.548363
S	1.180599	-7.638634	1.445750
C	-0.282727	-6.264785	-0.259951
H	-1.203014	-7.966081	-1.347559
C	0.632972	-6.072714	0.833868
C	1.013580	-4.787049	1.248701
C	-0.845068	-5.162801	-0.965673
C	-0.460946	-3.874817	-0.553357
C	0.453541	-3.683952	0.543470
O	-1.714812	-5.499772	-1.958276
O	1.888193	-4.459055	2.245053
C	2.033848	-5.329063	3.360989
H	2.584788	-4.755694	4.130667
H	2.624118	-6.238095	3.112380
H	1.047748	-5.637262	3.770895
C	-2.013896	-4.572261	-2.994272
H	-2.570853	-5.139743	-3.763700
H	-1.090625	-4.153131	-3.448815
H	-2.657717	-3.739531	-2.636780
C	0.694943	-2.306654	0.827659
S	-0.999993	-2.306501	-1.174750
C	-0.000000	-1.435185	-0.000000
H	1.370385	-1.978138	1.627541
C	0.000000	0.000000	0.000000
S	0.309893	0.850039	1.507541
C	0.847011	2.328006	0.718873
C	0.310046	0.849645	-1.067872
C	0.783331	2.156746	-0.686410
S	0.229416	0.619785	-2.805516
C	0.823328	2.267711	-3.054530
C	1.063278	2.934142	-1.862551
F	1.515925	4.191824	-1.819088
C	0.978337	2.688069	-4.456084
O	0.722535	1.961921	-5.406510
O	1.433229	3.959697	-4.569225
C	1.607467	4.423139	-5.916207
H	1.977475	5.460158	-5.833064
H	0.647388	4.396602	-6.470168
H	2.339490	3.791823	-6.459293
H	1.161798	3.197007	1.306486
H	0.859314	-9.143623	-0.311979
H	-0.508666	-9.149441	0.852097
H	0.822504	-1.443175	-0.699874
$end

$rem
JOBTYPE		SP
EXCHANGE	HF
CORRELATION	pRIMP2
BASIS		cc-pvtz
METHOD		rimp2
AUX_BASIS	rimp2-cc-pvtz
SOLVENT_METHOD	PCM
PURECART	11111
SYMMETRY	false
MEM_TOTAL	110000
SCF_CONVERGENCE = 6
THRESH=10
GUI = 2
$end

$solvent
dielectric 4.90
$end
--------------------------------------------------------------

             Standard Nuclear Orientation (Angstroms)
    I     Atom           X                Y                Z
 ----------------------------------------------------------------
    1      C       0.1729040000    -8.5177020000     0.2703580000
    2      C      -0.5246880000    -7.6415750000    -0.5483630000
    3      S       1.1805990000    -7.6386340000     1.4457500000
    4      C      -0.2827270000    -6.2647850000    -0.2599510000
    5      H      -1.2030140000    -7.9660810000    -1.3475590000
    6      C       0.6329720000    -6.0727140000     0.8338680000
    7      C       1.0135800000    -4.7870490000     1.2487010000
    8      C      -0.8450680000    -5.1628010000    -0.9656730000
    9      C      -0.4609460000    -3.8748170000    -0.5533570000
   10      C       0.4535410000    -3.6839520000     0.5434700000
   11      O      -1.7148120000    -5.4997720000    -1.9582760000
   12      O       1.8881930000    -4.4590550000     2.2450530000
   13      C       2.0338480000    -5.3290630000     3.3609890000
   14      H       2.5847880000    -4.7556940000     4.1306670000
   15      H       2.6241180000    -6.2380950000     3.1123800000
   16      H       1.0477480000    -5.6372620000     3.7708950000
   17      C      -2.0138960000    -4.5722610000    -2.9942720000
   18      H      -2.5708530000    -5.1397430000    -3.7637000000
   19      H      -1.0906250000    -4.1531310000    -3.4488150000
   20      H      -2.6577170000    -3.7395310000    -2.6367800000
   21      C       0.6949430000    -2.3066540000     0.8276590000
   22      S      -0.9999930000    -2.3065010000    -1.1747500000
   23      C       0.0000000000    -1.4351850000     0.0000000000
   24      H       1.3703850000    -1.9781380000     1.6275410000
   25      C       0.0000000000     0.0000000000     0.0000000000
   26      S       0.3098930000     0.8500390000     1.5075410000
   27      C       0.8470110000     2.3280060000     0.7188730000
   28      C       0.3100460000     0.8496450000    -1.0678720000
   29      C       0.7833310000     2.1567460000    -0.6864100000
   30      S       0.2294160000     0.6197850000    -2.8055160000
   31      C       0.8233280000     2.2677110000    -3.0545300000
   32      C       1.0632780000     2.9341420000    -1.8625510000
   33      F       1.5159250000     4.1918240000    -1.8190880000
   34      C       0.9783370000     2.6880690000    -4.4560840000
   35      O       0.7225350000     1.9619210000    -5.4065100000
   36      O       1.4332290000     3.9596970000    -4.5692250000
   37      C       1.6074670000     4.4231390000    -5.9162070000
   38      H       1.9774750000     5.4601580000    -5.8330640000
   39      H       0.6473880000     4.3966020000    -6.4701680000
   40      H       2.3394900000     3.7918230000    -6.4592930000
   41      H       1.1617980000     3.1970070000     1.3064860000
   42      H       0.8593140000    -9.1436230000    -0.3119790000
   43      H      -0.5086660000    -9.1494410000     0.8520970000
   44      H       0.8225040000    -1.4431750000    -0.6998740000
 ----------------------------------------------------------------

   11   -2755.3385592000      7.69e-07  Convergence criterion met
 Total energy in the final basis set =    -2755.3385592000
        RIMP2         total energy =     -2760.4308358793 a.u.

                    Orbital Energies (a.u.)
 --------------------------------------------------------------

 Alpha MOs
 -- Occupied --
-92.0150 -91.9990 -91.9778 -91.9588 -26.3436 -20.6151 -20.5877 -20.5871
-20.5616 -11.4097 -11.3827 -11.3095 -11.3081 -11.3058 -11.3058 -11.2979
-11.2968 -11.2890 -11.2854 -11.2840 -11.2837 -11.2833 -11.2818 -11.2738
-11.2732 -11.2591 -11.2586 -11.2502 -11.2378  -9.0136  -8.9991  -8.9802
 -8.9614  -6.6944  -6.6938  -6.6933  -6.6801  -6.6793  -6.6782  -6.6614
 -6.6604  -6.6592  -6.6426  -6.6417  -6.6406  -1.6606  -1.4676  -1.4106
 -1.4094  -1.3702  -1.2311  -1.2023  -1.1742  -1.1376  -1.1008  -1.0475
 -1.0451  -1.0240  -1.0037  -0.9975  -0.9640  -0.9572  -0.9489  -0.9419
 -0.8937  -0.8706  -0.8641  -0.8158  -0.7928  -0.7897  -0.7850  -0.7688
 -0.7579  -0.7360  -0.7255  -0.7092  -0.6997  -0.6950  -0.6850  -0.6809
 -0.6741  -0.6654  -0.6558  -0.6488  -0.6358  -0.6313  -0.6205  -0.6154
 -0.6109  -0.5996  -0.5936  -0.5759  -0.5711  -0.5648  -0.5589  -0.5559
 -0.5515  -0.5318  -0.5294  -0.5256  -0.5139  -0.5100  -0.5077  -0.5009
 -0.4858  -0.4802  -0.4772  -0.4739  -0.4723  -0.4662  -0.4605  -0.4464
 -0.4302  -0.3965  -0.3844  -0.3707  -0.3500  -0.3005  -0.2886  -0.2186

          Ground-State Mulliken Net Atomic Charges

     Atom                 Charge (a.u.)
  ----------------------------------------
      1 C                    -0.070302
      2 C                    -0.257223
      3 S                    -0.134477
      4 C                    -0.045391
      5 H                     0.193959
      6 C                    -0.051504
      7 C                     0.220848
      8 C                     0.231862
      9 C                    -0.077295
     10 C                    -0.047772
     11 O                    -0.334979
     12 O                    -0.343885
     13 C                    -0.082649
     14 H                     0.119908
     15 H                     0.092270
     16 H                     0.092821
     17 C                    -0.087949
     18 H                     0.123460
     19 H                     0.093502
     20 H                     0.090446
     21 C                    -0.274894
     22 S                    -0.076544
     23 C                     0.049984
     24 H                     0.206446
     25 C                    -0.022849
     26 S                     0.084133
     27 C                    -0.196967
     28 C                    -0.018134
     29 C                    -0.103316
     30 S                     0.005112
     31 C                    -0.156644
     32 C                     0.397747
     33 F                    -0.206380
     34 C                     0.445567
     35 O                    -0.460563
     36 O                    -0.300843
     37 C                    -0.058492
     38 H                     0.121450
     39 H                     0.095196
     40 H                     0.095088
     41 H                     0.216878
     42 H                     0.117848
     43 H                     0.115319
     44 H                     0.199206
  ----------------------------------------
  Sum of atomic charges =     0.000000

                    Cartesian Multipole Moments
 -----------------------------------------------------------------
    Charge (ESU x 10^10)
                -0.0000
    Dipole Moment (Debye)
         X       1.2397      Y       2.2224      Z       2.4761
       Tot       3.5507
    Quadrupole Moments (Debye-Ang)
        XX    -197.7105     XY       7.4874     YY    -175.0927
        XZ       3.7275     YZ      -4.2422     ZZ    -190.0606

 Total job time:  353.78s(wall), 10905.82s(cpu)
        *  Thank you very much for using Q-Chem.  Have a nice day.  *
