 Q-Chem 5.4, Q-Chem, Inc., Pleasanton, CA (2021)
 Q-Chem 5.4.0 for Intel X86 EM64T Linux

User input:
--------------------------------------------------------------
$molecule
0 1
C	0.123330	-8.517702	0.296276
C	-0.421494	-7.641575	-0.631143
S	0.911611	-7.638634	1.628795
C	-0.233291	-6.264785	-0.305097
H	-0.950737	-7.966081	-1.535988
C	0.478557	-6.072714	0.931114
C	0.781346	-4.787049	1.405737
C	-0.664542	-5.162801	-1.097747
C	-0.357854	-3.874817	-0.624993
C	0.352278	-3.683952	0.613970
O	-1.348709	-5.499772	-2.226300
O	1.469658	-4.459055	2.538827
C	1.419319	-5.329063	3.663102
H	1.828237	-4.755694	4.516756
H	2.043793	-6.238095	3.520769
H	0.377021	-5.637262	3.895546
C	-1.463351	-4.572261	-3.298492
H	-1.878237	-5.139743	-4.152945
H	-0.475176	-4.153131	-3.585804
H	-2.159469	-3.739531	-3.058230
C	0.540664	-2.306654	0.935761
S	-0.780808	-2.306501	-1.330550
C	-0.000000	-1.435185	-0.000000
H	1.066946	-1.978138	1.840780
C	0.000000	0.000000	0.000000
S	0.309893	0.850039	1.507541
C	0.847011	2.328006	0.718873
C	0.310046	0.849645	-1.067872
C	0.783331	2.156746	-0.686410
S	0.229416	0.619785	-2.805516
C	0.823328	2.267711	-3.054530
C	1.063278	2.934142	-1.862551
F	1.515925	4.191824	-1.819088
C	0.978337	2.688069	-4.456084
O	0.722535	1.961921	-5.406510
O	1.433229	3.959697	-4.569225
C	1.607467	4.423139	-5.916207
H	1.977475	5.460158	-5.833064
H	0.647388	4.396602	-6.470168
H	2.339490	3.791823	-6.459293
H	1.161798	3.197007	1.306486
H	0.900433	-9.143623	-0.158021
H	-0.648903	-9.149441	0.750822
H	0.931540	-1.443175	-0.546415
$end

$rem
JOBTYPE		SP
EXCHANGE	HF
CORRELATION	pRIMP2
BASIS		cc-pvtz
METHOD		rimp2
AUX_BASIS	rimp2-cc-pvtz
SOLVENT_METHOD	PCM
PURECART	11111
SYMMETRY	false
MEM_TOTAL	110000
SCF_CONVERGENCE = 6
THRESH=10
GUI = 2
$end

$solvent
dielectric 4.90
$end
--------------------------------------------------------------

             Standard Nuclear Orientation (Angstroms)
    I     Atom           X                Y                Z
 ----------------------------------------------------------------
    1      C       0.1233300000    -8.5177020000     0.2962760000
    2      C      -0.4214940000    -7.6415750000    -0.6311430000
    3      S       0.9116110000    -7.6386340000     1.6287950000
    4      C      -0.2332910000    -6.2647850000    -0.3050970000
    5      H      -0.9507370000    -7.9660810000    -1.5359880000
    6      C       0.4785570000    -6.0727140000     0.9311140000
    7      C       0.7813460000    -4.7870490000     1.4057370000
    8      C      -0.6645420000    -5.1628010000    -1.0977470000
    9      C      -0.3578540000    -3.8748170000    -0.6249930000
   10      C       0.3522780000    -3.6839520000     0.6139700000
   11      O      -1.3487090000    -5.4997720000    -2.2263000000
   12      O       1.4696580000    -4.4590550000     2.5388270000
   13      C       1.4193190000    -5.3290630000     3.6631020000
   14      H       1.8282370000    -4.7556940000     4.5167560000
   15      H       2.0437930000    -6.2380950000     3.5207690000
   16      H       0.3770210000    -5.6372620000     3.8955460000
   17      C      -1.4633510000    -4.5722610000    -3.2984920000
   18      H      -1.8782370000    -5.1397430000    -4.1529450000
   19      H      -0.4751760000    -4.1531310000    -3.5858040000
   20      H      -2.1594690000    -3.7395310000    -3.0582300000
   21      C       0.5406640000    -2.3066540000     0.9357610000
   22      S      -0.7808080000    -2.3065010000    -1.3305500000
   23      C       0.0000000000    -1.4351850000     0.0000000000
   24      H       1.0669460000    -1.9781380000     1.8407800000
   25      C       0.0000000000     0.0000000000     0.0000000000
   26      S       0.3098930000     0.8500390000     1.5075410000
   27      C       0.8470110000     2.3280060000     0.7188730000
   28      C       0.3100460000     0.8496450000    -1.0678720000
   29      C       0.7833310000     2.1567460000    -0.6864100000
   30      S       0.2294160000     0.6197850000    -2.8055160000
   31      C       0.8233280000     2.2677110000    -3.0545300000
   32      C       1.0632780000     2.9341420000    -1.8625510000
   33      F       1.5159250000     4.1918240000    -1.8190880000
   34      C       0.9783370000     2.6880690000    -4.4560840000
   35      O       0.7225350000     1.9619210000    -5.4065100000
   36      O       1.4332290000     3.9596970000    -4.5692250000
   37      C       1.6074670000     4.4231390000    -5.9162070000
   38      H       1.9774750000     5.4601580000    -5.8330640000
   39      H       0.6473880000     4.3966020000    -6.4701680000
   40      H       2.3394900000     3.7918230000    -6.4592930000
   41      H       1.1617980000     3.1970070000     1.3064860000
   42      H       0.9004330000    -9.1436230000    -0.1580210000
   43      H      -0.6489030000    -9.1494410000     0.7508220000
   44      H       0.9315400000    -1.4431750000    -0.5464150000
 ----------------------------------------------------------------

   11   -2755.3379748403      7.90e-07  Convergence criterion met
 Total energy in the final basis set =    -2755.3379748403
        RIMP2         total energy =     -2760.4308532627 a.u.

                    Orbital Energies (a.u.)
 --------------------------------------------------------------

 Alpha MOs
 -- Occupied --
-92.0151 -91.9977 -91.9788 -91.9592 -26.3430 -20.6150 -20.5879 -20.5876
-20.5614 -11.4095 -11.3818 -11.3098 -11.3091 -11.3079 -11.3033 -11.2976
-11.2945 -11.2889 -11.2851 -11.2844 -11.2843 -11.2835 -11.2830 -11.2743
-11.2732 -11.2599 -11.2590 -11.2506 -11.2387  -9.0137  -8.9978  -8.9813
 -8.9618  -6.6944  -6.6939  -6.6933  -6.6787  -6.6780  -6.6769  -6.6624
 -6.6615  -6.6602  -6.6430  -6.6421  -6.6410  -1.6601  -1.4674  -1.4111
 -1.4097  -1.3701  -1.2312  -1.2024  -1.1747  -1.1375  -1.1009  -1.0479
 -1.0448  -1.0239  -1.0040  -0.9978  -0.9640  -0.9570  -0.9492  -0.9420
 -0.8942  -0.8703  -0.8641  -0.8158  -0.7923  -0.7899  -0.7850  -0.7692
 -0.7575  -0.7364  -0.7250  -0.7091  -0.6986  -0.6954  -0.6848  -0.6813
 -0.6740  -0.6653  -0.6561  -0.6491  -0.6366  -0.6315  -0.6209  -0.6157
 -0.6111  -0.5996  -0.5937  -0.5760  -0.5712  -0.5653  -0.5594  -0.5560
 -0.5510  -0.5319  -0.5300  -0.5262  -0.5146  -0.5107  -0.5080  -0.5008
 -0.4855  -0.4801  -0.4772  -0.4736  -0.4718  -0.4659  -0.4607  -0.4470
 -0.4315  -0.3969  -0.3837  -0.3714  -0.3501  -0.3003  -0.2879  -0.2182

          Ground-State Mulliken Net Atomic Charges

     Atom                 Charge (a.u.)
  ----------------------------------------
      1 C                    -0.070472
      2 C                    -0.254467
      3 S                    -0.133846
      4 C                    -0.046052
      5 H                     0.194270
      6 C                    -0.050907
      7 C                     0.220324
      8 C                     0.231624
      9 C                    -0.075324
     10 C                    -0.044272
     11 O                    -0.334659
     12 O                    -0.344022
     13 C                    -0.082550
     14 H                     0.120007
     15 H                     0.092150
     16 H                     0.092984
     17 C                    -0.088274
     18 H                     0.123843
     19 H                     0.093689
     20 H                     0.090662
     21 C                    -0.286238
     22 S                    -0.083552
     23 C                     0.066085
     24 H                     0.203072
     25 C                    -0.009318
     26 S                     0.080980
     27 C                    -0.204358
     28 C                    -0.021658
     29 C                    -0.107436
     30 S                     0.001754
     31 C                    -0.160412
     32 C                     0.401028
     33 F                    -0.206931
     34 C                     0.445527
     35 O                    -0.460527
     36 O                    -0.300797
     37 C                    -0.058550
     38 H                     0.121424
     39 H                     0.095175
     40 H                     0.095041
     41 H                     0.216888
     42 H                     0.118188
     43 H                     0.115774
     44 H                     0.204136
  ----------------------------------------
  Sum of atomic charges =     0.000000

                    Cartesian Multipole Moments
 -----------------------------------------------------------------
    Charge (ESU x 10^10)
                 0.0000
    Dipole Moment (Debye)
         X       1.2779      Y       1.8485      Z       2.5148
       Tot       3.3726
    Quadrupole Moments (Debye-Ang)
        XX    -199.4559     XY       6.9144     YY    -173.8258
        XZ       1.0189     YZ      -3.6483     ZZ    -188.3394

 Total job time:  352.73s(wall), 10900.76s(cpu)
        *  Thank you very much for using Q-Chem.  Have a nice day.  *
