 Q-Chem 5.4, Q-Chem, Inc., Pleasanton, CA (2021)
 Q-Chem 5.4.0 for Intel X86 EM64T Linux

User input:
--------------------------------------------------------------
$molecule
0 1
C	-0.236226	-8.517702	0.217225
C	0.448921	-7.641575	-0.611939
S	-1.218777	-7.638634	1.413715
C	0.206907	-6.264785	-0.323572
H	1.118185	-7.966081	-1.418739
C	-0.711285	-6.072714	0.768156
C	-1.053725	-4.787049	1.215016
C	0.804258	-5.162801	-0.999917
C	0.464908	-3.874817	-0.550033
C	-0.456457	-3.683952	0.541024
O	1.630752	-5.499772	-2.028811
O	-1.883064	-4.459055	2.249357
C	-2.956754	-5.329063	2.586579
H	-3.619069	-4.755694	3.262802
H	-2.609423	-6.238095	3.124711
H	-3.531667	-5.637262	1.686639
C	2.599073	-4.572261	-2.503251
H	3.260097	-5.139743	-3.185356
H	3.207034	-4.153131	-1.672937
H	2.135214	-3.739531	-3.075213
C	-0.694410	-2.306654	0.828107
S	0.983256	-2.306501	-1.188794
C	-0.000000	-1.435185	-0.000000
H	-1.364851	-1.978138	1.632185
C	0.000000	0.000000	0.000000
S	0.581934	0.692785	1.507541
C	1.592155	1.897915	0.718873
C	0.581944	0.692363	-1.067872
C	1.473741	1.758764	-0.686410
S	0.427560	0.503942	-2.805516
C	1.549278	1.849357	-3.054530
C	2.002690	2.393529	-1.862551
F	2.858191	3.420549	-1.819088
C	1.838710	2.191348	-4.456084
O	1.349977	1.596481	-5.406510
O	2.701091	3.230705	-4.569225
C	3.023327	3.606605	-5.916207
H	3.725703	4.454534	-5.833064
H	2.112072	3.910035	-6.470168
H	3.495281	2.762996	-6.459293
H	2.185174	2.606846	1.306486
H	0.456457	-9.143623	0.792084
H	-0.927480	-9.149441	-0.352973
H	0.832067	-1.443175	0.688477
$end

$rem
JOBTYPE		SP
EXCHANGE	HF
CORRELATION	pRIMP2
BASIS		cc-pvtz
METHOD		rimp2
AUX_BASIS	rimp2-cc-pvtz
SOLVENT_METHOD	PCM
PURECART	11111
SYMMETRY	false
MEM_TOTAL	110000
SCF_CONVERGENCE = 6
THRESH=10
GUI = 2
$end

$solvent
dielectric 4.90
$end
--------------------------------------------------------------

             Standard Nuclear Orientation (Angstroms)
    I     Atom           X                Y                Z
 ----------------------------------------------------------------
    1      C      -0.2362260000    -8.5177020000     0.2172250000
    2      C       0.4489210000    -7.6415750000    -0.6119390000
    3      S      -1.2187770000    -7.6386340000     1.4137150000
    4      C       0.2069070000    -6.2647850000    -0.3235720000
    5      H       1.1181850000    -7.9660810000    -1.4187390000
    6      C      -0.7112850000    -6.0727140000     0.7681560000
    7      C      -1.0537250000    -4.7870490000     1.2150160000
    8      C       0.8042580000    -5.1628010000    -0.9999170000
    9      C       0.4649080000    -3.8748170000    -0.5500330000
   10      C      -0.4564570000    -3.6839520000     0.5410240000
   11      O       1.6307520000    -5.4997720000    -2.0288110000
   12      O      -1.8830640000    -4.4590550000     2.2493570000
   13      C      -2.9567540000    -5.3290630000     2.5865790000
   14      H      -3.6190690000    -4.7556940000     3.2628020000
   15      H      -2.6094230000    -6.2380950000     3.1247110000
   16      H      -3.5316670000    -5.6372620000     1.6866390000
   17      C       2.5990730000    -4.5722610000    -2.5032510000
   18      H       3.2600970000    -5.1397430000    -3.1853560000
   19      H       3.2070340000    -4.1531310000    -1.6729370000
   20      H       2.1352140000    -3.7395310000    -3.0752130000
   21      C      -0.6944100000    -2.3066540000     0.8281070000
   22      S       0.9832560000    -2.3065010000    -1.1887940000
   23      C       0.0000000000    -1.4351850000     0.0000000000
   24      H      -1.3648510000    -1.9781380000     1.6321850000
   25      C       0.0000000000     0.0000000000     0.0000000000
   26      S       0.5819340000     0.6927850000     1.5075410000
   27      C       1.5921550000     1.8979150000     0.7188730000
   28      C       0.5819440000     0.6923630000    -1.0678720000
   29      C       1.4737410000     1.7587640000    -0.6864100000
   30      S       0.4275600000     0.5039420000    -2.8055160000
   31      C       1.5492780000     1.8493570000    -3.0545300000
   32      C       2.0026900000     2.3935290000    -1.8625510000
   33      F       2.8581910000     3.4205490000    -1.8190880000
   34      C       1.8387100000     2.1913480000    -4.4560840000
   35      O       1.3499770000     1.5964810000    -5.4065100000
   36      O       2.7010910000     3.2307050000    -4.5692250000
   37      C       3.0233270000     3.6066050000    -5.9162070000
   38      H       3.7257030000     4.4545340000    -5.8330640000
   39      H       2.1120720000     3.9100350000    -6.4701680000
   40      H       3.4952810000     2.7629960000    -6.4592930000
   41      H       2.1851740000     2.6068460000     1.3064860000
   42      H       0.4564570000    -9.1436230000     0.7920840000
   43      H      -0.9274800000    -9.1494410000    -0.3529730000
   44      H       0.8320670000    -1.4431750000     0.6884770000
 ----------------------------------------------------------------

   11   -2755.3114483003      8.13e-07  Convergence criterion met
 Total energy in the final basis set =    -2755.3114483003
        RIMP2         total energy =     -2760.4088981951 a.u.

                    Orbital Energies (a.u.)
 --------------------------------------------------------------

 Alpha MOs
 -- Occupied --
-92.0101 -91.9989 -91.9761 -91.9576 -26.3438 -20.6151 -20.5869 -20.5862
-20.5617 -11.4097 -11.3832 -11.3176 -11.3083 -11.3065 -11.3029 -11.2978
-11.2954 -11.2891 -11.2860 -11.2836 -11.2827 -11.2811 -11.2769 -11.2719
-11.2687 -11.2575 -11.2560 -11.2492 -11.2359  -9.0100  -8.9991  -8.9784
 -8.9603  -6.6908  -6.6900  -6.6895  -6.6801  -6.6793  -6.6782  -6.6594
 -6.6585  -6.6572  -6.6415  -6.6406  -6.6396  -1.6609  -1.4676  -1.4097
 -1.4085  -1.3703  -1.2352  -1.2006  -1.1733  -1.1394  -1.0986  -1.0478
 -1.0438  -1.0265  -1.0025  -0.9951  -0.9647  -0.9567  -0.9485  -0.9413
 -0.8928  -0.8693  -0.8622  -0.8172  -0.7938  -0.7887  -0.7831  -0.7679
 -0.7566  -0.7377  -0.7258  -0.7156  -0.6960  -0.6897  -0.6850  -0.6802
 -0.6742  -0.6631  -0.6553  -0.6481  -0.6364  -0.6299  -0.6195  -0.6149
 -0.6108  -0.6003  -0.5920  -0.5767  -0.5712  -0.5646  -0.5597  -0.5570
 -0.5437  -0.5330  -0.5312  -0.5246  -0.5123  -0.5111  -0.5071  -0.5007
 -0.4846  -0.4811  -0.4760  -0.4736  -0.4690  -0.4655  -0.4574  -0.4463
 -0.4283  -0.3928  -0.3843  -0.3689  -0.3533  -0.2992  -0.2881  -0.2168

          Ground-State Mulliken Net Atomic Charges

     Atom                 Charge (a.u.)
  ----------------------------------------
      1 C                    -0.070060
      2 C                    -0.262563
      3 S                    -0.137356
      4 C                    -0.046995
      5 H                     0.193205
      6 C                    -0.048501
      7 C                     0.214949
      8 C                     0.223078
      9 C                    -0.072972
     10 C                    -0.025166
     11 O                    -0.334883
     12 O                    -0.343528
     13 C                    -0.082753
     14 H                     0.119655
     15 H                     0.091931
     16 H                     0.093055
     17 C                    -0.088957
     18 H                     0.123694
     19 H                     0.091465
     20 H                     0.091788
     21 C                    -0.318988
     22 S                    -0.090308
     23 C                     0.108004
     24 H                     0.202719
     25 C                    -0.044330
     26 S                     0.080825
     27 C                    -0.171532
     28 C                    -0.067796
     29 C                    -0.082403
     30 S                     0.033744
     31 C                    -0.153322
     32 C                     0.399998
     33 F                    -0.206973
     34 C                     0.444200
     35 O                    -0.460632
     36 O                    -0.300867
     37 C                    -0.058473
     38 H                     0.121400
     39 H                     0.095319
     40 H                     0.095054
     41 H                     0.217969
     42 H                     0.116918
     43 H                     0.114759
     44 H                     0.195626
  ----------------------------------------
  Sum of atomic charges =     0.000000

                    Cartesian Multipole Moments
 -----------------------------------------------------------------
    Charge (ESU x 10^10)
                -0.0000
    Dipole Moment (Debye)
         X       2.5981      Y       2.5713      Z       2.9697
       Tot       4.7096
    Quadrupole Moments (Debye-Ang)
        XX    -181.5156     XY       5.5929     YY    -182.8485
        XZ     -12.9191     YZ      -2.4542     ZZ    -200.8483

 Total job time:  321.80s(wall), 10090.15s(cpu)
        *  Thank you very much for using Q-Chem.  Have a nice day.  *
