 Q-Chem 5.4, Q-Chem, Inc., Pleasanton, CA (2021)
 Q-Chem 5.4.0 for Intel X86 EM64T Linux

User input:
--------------------------------------------------------------
$molecule
0 1
C	0.270358	-8.517702	-0.172904
C	-0.548363	-7.641575	0.524688
S	1.445750	-7.638634	-1.180599
C	-0.259951	-6.264785	0.282727
H	-1.347559	-7.966081	1.203014
C	0.833868	-6.072714	-0.632972
C	1.248701	-4.787049	-1.013580
C	-0.965673	-5.162801	0.845068
C	-0.553357	-3.874817	0.460946
C	0.543470	-3.683952	-0.453541
O	-1.958276	-5.499772	1.714812
O	2.245053	-4.459055	-1.888193
C	3.360989	-5.329063	-2.033848
H	4.130667	-4.755694	-2.584788
H	3.112380	-6.238095	-2.624118
H	3.770895	-5.637262	-1.047748
C	-2.994272	-4.572261	2.013896
H	-3.763700	-5.139743	2.570853
H	-3.448815	-4.153131	1.090625
H	-2.636780	-3.739531	2.657717
C	0.827659	-2.306654	-0.694943
S	-1.174750	-2.306501	0.999993
C	0.000000	-1.435185	0.000000
H	1.627541	-1.978138	-1.370385
C	0.000000	0.000000	0.000000
S	0.000474	0.904764	1.507541
C	-0.000295	2.477305	0.718873
C	0.000752	0.904447	-1.067872
C	-0.001560	2.294593	-0.686410
S	0.003602	0.660872	-2.805516
C	-0.001928	2.412546	-3.054530
C	-0.004381	3.120854	-1.862551
F	-0.009185	4.457503	-1.819088
C	-0.000038	2.860570	-4.456084
O	0.007944	2.090724	-5.406510
O	-0.007501	4.211092	-4.569225
C	-0.002278	4.706177	-5.916207
H	-0.009265	5.807207	-5.833064
H	-0.895381	4.352875	-6.470168
H	0.901521	4.363301	-6.459293
H	-0.001708	3.401562	1.306486
H	-0.311979	-9.143623	-0.859314
H	0.852097	-9.149441	0.508666
H	-0.699874	-1.443175	-0.822504
$end

$rem
JOBTYPE		SP
EXCHANGE	HF
CORRELATION	pRIMP2
BASIS		cc-pvtz
METHOD		rimp2
AUX_BASIS	rimp2-cc-pvtz
SOLVENT_METHOD	PCM
PURECART	11111
SYMMETRY	false
MEM_TOTAL	110000
SCF_CONVERGENCE = 6
THRESH=10
GUI = 2
$end

$solvent
dielectric 4.90
$end
--------------------------------------------------------------

             Standard Nuclear Orientation (Angstroms)
    I     Atom           X                Y                Z
 ----------------------------------------------------------------
    1      C       0.2703580000    -8.5177020000    -0.1729040000
    2      C      -0.5483630000    -7.6415750000     0.5246880000
    3      S       1.4457500000    -7.6386340000    -1.1805990000
    4      C      -0.2599510000    -6.2647850000     0.2827270000
    5      H      -1.3475590000    -7.9660810000     1.2030140000
    6      C       0.8338680000    -6.0727140000    -0.6329720000
    7      C       1.2487010000    -4.7870490000    -1.0135800000
    8      C      -0.9656730000    -5.1628010000     0.8450680000
    9      C      -0.5533570000    -3.8748170000     0.4609460000
   10      C       0.5434700000    -3.6839520000    -0.4535410000
   11      O      -1.9582760000    -5.4997720000     1.7148120000
   12      O       2.2450530000    -4.4590550000    -1.8881930000
   13      C       3.3609890000    -5.3290630000    -2.0338480000
   14      H       4.1306670000    -4.7556940000    -2.5847880000
   15      H       3.1123800000    -6.2380950000    -2.6241180000
   16      H       3.7708950000    -5.6372620000    -1.0477480000
   17      C      -2.9942720000    -4.5722610000     2.0138960000
   18      H      -3.7637000000    -5.1397430000     2.5708530000
   19      H      -3.4488150000    -4.1531310000     1.0906250000
   20      H      -2.6367800000    -3.7395310000     2.6577170000
   21      C       0.8276590000    -2.3066540000    -0.6949430000
   22      S      -1.1747500000    -2.3065010000     0.9999930000
   23      C       0.0000000000    -1.4351850000     0.0000000000
   24      H       1.6275410000    -1.9781380000    -1.3703850000
   25      C       0.0000000000     0.0000000000     0.0000000000
   26      S       0.0004740000     0.9047640000     1.5075410000
   27      C      -0.0002950000     2.4773050000     0.7188730000
   28      C       0.0007520000     0.9044470000    -1.0678720000
   29      C      -0.0015600000     2.2945930000    -0.6864100000
   30      S       0.0036020000     0.6608720000    -2.8055160000
   31      C      -0.0019280000     2.4125460000    -3.0545300000
   32      C      -0.0043810000     3.1208540000    -1.8625510000
   33      F      -0.0091850000     4.4575030000    -1.8190880000
   34      C      -0.0000380000     2.8605700000    -4.4560840000
   35      O       0.0079440000     2.0907240000    -5.4065100000
   36      O      -0.0075010000     4.2110920000    -4.5692250000
   37      C      -0.0022780000     4.7061770000    -5.9162070000
   38      H      -0.0092650000     5.8072070000    -5.8330640000
   39      H      -0.8953810000     4.3528750000    -6.4701680000
   40      H       0.9015210000     4.3633010000    -6.4592930000
   41      H      -0.0017080000     3.4015620000     1.3064860000
   42      H      -0.3119790000    -9.1436230000    -0.8593140000
   43      H       0.8520970000    -9.1494410000     0.5086660000
   44      H      -0.6998740000    -1.4431750000    -0.8225040000
 ----------------------------------------------------------------

   11   -2755.3467622508      7.46e-07  Convergence criterion met
 Total energy in the final basis set =    -2755.3467622508
        RIMP2         total energy =     -2760.4355493304 a.u.

                    Orbital Energies (a.u.)
 --------------------------------------------------------------

 Alpha MOs
 -- Occupied --
-92.0135 -91.9990 -91.9805 -91.9584 -26.3439 -20.6153 -20.5878 -20.5872
-20.5618 -11.4099 -11.3832 -11.3093 -11.3086 -11.3067 -11.3059 -11.2987
-11.2985 -11.2891 -11.2852 -11.2851 -11.2840 -11.2827 -11.2823 -11.2732
-11.2728 -11.2586 -11.2586 -11.2499 -11.2376  -9.0122  -8.9991  -8.9826
 -8.9610  -6.6930  -6.6924  -6.6919  -6.6801  -6.6794  -6.6783  -6.6637
 -6.6628  -6.6615  -6.6422  -6.6413  -6.6403  -1.6609  -1.4677  -1.4111
 -1.4090  -1.3704  -1.2298  -1.2030  -1.1740  -1.1371  -1.1012  -1.0467
 -1.0459  -1.0233  -1.0042  -0.9980  -0.9623  -0.9596  -0.9489  -0.9411
 -0.8943  -0.8712  -0.8647  -0.8105  -0.7990  -0.7899  -0.7847  -0.7682
 -0.7582  -0.7364  -0.7257  -0.7093  -0.7005  -0.6956  -0.6852  -0.6804
 -0.6743  -0.6649  -0.6562  -0.6488  -0.6366  -0.6307  -0.6203  -0.6151
 -0.6123  -0.5988  -0.5927  -0.5773  -0.5713  -0.5655  -0.5589  -0.5524
 -0.5477  -0.5341  -0.5315  -0.5268  -0.5131  -0.5086  -0.5079  -0.5023
 -0.4854  -0.4820  -0.4762  -0.4744  -0.4692  -0.4684  -0.4622  -0.4472
 -0.4280  -0.3974  -0.3860  -0.3704  -0.3505  -0.3003  -0.2896  -0.2199

          Ground-State Mulliken Net Atomic Charges

     Atom                 Charge (a.u.)
  ----------------------------------------
      1 C                    -0.070331
      2 C                    -0.257946
      3 S                    -0.134550
      4 C                    -0.045408
      5 H                     0.193598
      6 C                    -0.052279
      7 C                     0.223697
      8 C                     0.228077
      9 C                    -0.077214
     10 C                    -0.045891
     11 O                    -0.334638
     12 O                    -0.342889
     13 C                    -0.082940
     14 H                     0.120435
     15 H                     0.092318
     16 H                     0.092559
     17 C                    -0.087085
     18 H                     0.123738
     19 H                     0.093025
     20 H                     0.090170
     21 C                    -0.274495
     22 S                    -0.078350
     23 C                     0.077388
     24 H                     0.210361
     25 C                    -0.064050
     26 S                     0.087823
     27 C                    -0.195047
     28 C                     0.007949
     29 C                    -0.112305
     30 S                     0.000667
     31 C                    -0.154886
     32 C                     0.396296
     33 F                    -0.206367
     34 C                     0.445284
     35 O                    -0.460698
     36 O                    -0.300562
     37 C                    -0.058637
     38 H                     0.121542
     39 H                     0.095240
     40 H                     0.095159
     41 H                     0.217029
     42 H                     0.117669
     43 H                     0.115165
     44 H                     0.191379
  ----------------------------------------
  Sum of atomic charges =     0.000000

                    Cartesian Multipole Moments
 -----------------------------------------------------------------
    Charge (ESU x 10^10)
                 0.0000
    Dipole Moment (Debye)
         X      -0.5096      Y       2.4474      Z       2.6426
       Tot       3.6377
    Quadrupole Moments (Debye-Ang)
        XX    -185.6390     XY       3.1014     YY    -173.5450
        XZ      -6.2746     YZ     -10.3302     ZZ    -204.0753

 Total job time:  325.77s(wall), 10655.32s(cpu)
        *  Thank you very much for using Q-Chem.  Have a nice day.  *
