 Q-Chem 5.4, Q-Chem, Inc., Pleasanton, CA (2021)
 Q-Chem 5.4.0 for Intel X86 EM64T Linux

User input:
--------------------------------------------------------------
$molecule
0 1
C	0.296276	-8.517702	-0.123330
C	-0.631143	-7.641575	0.421494
S	1.628795	-7.638634	-0.911611
C	-0.305097	-6.264785	0.233291
H	-1.535988	-7.966081	0.950737
C	0.931114	-6.072714	-0.478557
C	1.405737	-4.787049	-0.781346
C	-1.097747	-5.162801	0.664542
C	-0.624993	-3.874817	0.357854
C	0.613970	-3.683952	-0.352278
O	-2.226300	-5.499772	1.348709
O	2.538827	-4.459055	-1.469658
C	3.663102	-5.329063	-1.419319
H	4.516756	-4.755694	-1.828237
H	3.520769	-6.238095	-2.043793
H	3.895546	-5.637262	-0.377021
C	-3.298492	-4.572261	1.463351
H	-4.152945	-5.139743	1.878237
H	-3.585804	-4.153131	0.475176
H	-3.058230	-3.739531	2.159469
C	0.935761	-2.306654	-0.540664
S	-1.330550	-2.306501	0.780808
C	-0.000000	-1.435185	-0.000000
H	1.840780	-1.978138	-1.066946
C	0.000000	0.000000	0.000000
S	0.309893	0.850039	1.507541
C	0.847011	2.328006	0.718873
C	0.310046	0.849645	-1.067872
C	0.783331	2.156746	-0.686410
S	0.229416	0.619785	-2.805516
C	0.823328	2.267711	-3.054530
C	1.063278	2.934142	-1.862551
F	1.515925	4.191824	-1.819088
C	0.978337	2.688069	-4.456084
O	0.722535	1.961921	-5.406510
O	1.433229	3.959697	-4.569225
C	1.607467	4.423139	-5.916207
H	1.977475	5.460158	-5.833064
H	0.647388	4.396602	-6.470168
H	2.339490	3.791823	-6.459293
H	1.161798	3.197007	1.306486
H	-0.158021	-9.143623	-0.900433
H	0.750822	-9.149441	0.648903
H	-0.546415	-1.443175	-0.931540
$end

$rem
JOBTYPE		SP
EXCHANGE	HF
CORRELATION	pRIMP2
BASIS		cc-pvtz
METHOD		rimp2
AUX_BASIS	rimp2-cc-pvtz
SOLVENT_METHOD	PCM
PURECART	11111
SYMMETRY	false
MEM_TOTAL	110000
SCF_CONVERGENCE = 6
THRESH=10
GUI = 2
$end

$solvent
dielectric 4.90
$end
--------------------------------------------------------------

             Standard Nuclear Orientation (Angstroms)
    I     Atom           X                Y                Z
 ----------------------------------------------------------------
    1      C       0.2962760000    -8.5177020000    -0.1233300000
    2      C      -0.6311430000    -7.6415750000     0.4214940000
    3      S       1.6287950000    -7.6386340000    -0.9116110000
    4      C      -0.3050970000    -6.2647850000     0.2332910000
    5      H      -1.5359880000    -7.9660810000     0.9507370000
    6      C       0.9311140000    -6.0727140000    -0.4785570000
    7      C       1.4057370000    -4.7870490000    -0.7813460000
    8      C      -1.0977470000    -5.1628010000     0.6645420000
    9      C      -0.6249930000    -3.8748170000     0.3578540000
   10      C       0.6139700000    -3.6839520000    -0.3522780000
   11      O      -2.2263000000    -5.4997720000     1.3487090000
   12      O       2.5388270000    -4.4590550000    -1.4696580000
   13      C       3.6631020000    -5.3290630000    -1.4193190000
   14      H       4.5167560000    -4.7556940000    -1.8282370000
   15      H       3.5207690000    -6.2380950000    -2.0437930000
   16      H       3.8955460000    -5.6372620000    -0.3770210000
   17      C      -3.2984920000    -4.5722610000     1.4633510000
   18      H      -4.1529450000    -5.1397430000     1.8782370000
   19      H      -3.5858040000    -4.1531310000     0.4751760000
   20      H      -3.0582300000    -3.7395310000     2.1594690000
   21      C       0.9357610000    -2.3066540000    -0.5406640000
   22      S      -1.3305500000    -2.3065010000     0.7808080000
   23      C       0.0000000000    -1.4351850000     0.0000000000
   24      H       1.8407800000    -1.9781380000    -1.0669460000
   25      C       0.0000000000     0.0000000000     0.0000000000
   26      S       0.3098930000     0.8500390000     1.5075410000
   27      C       0.8470110000     2.3280060000     0.7188730000
   28      C       0.3100460000     0.8496450000    -1.0678720000
   29      C       0.7833310000     2.1567460000    -0.6864100000
   30      S       0.2294160000     0.6197850000    -2.8055160000
   31      C       0.8233280000     2.2677110000    -3.0545300000
   32      C       1.0632780000     2.9341420000    -1.8625510000
   33      F       1.5159250000     4.1918240000    -1.8190880000
   34      C       0.9783370000     2.6880690000    -4.4560840000
   35      O       0.7225350000     1.9619210000    -5.4065100000
   36      O       1.4332290000     3.9596970000    -4.5692250000
   37      C       1.6074670000     4.4231390000    -5.9162070000
   38      H       1.9774750000     5.4601580000    -5.8330640000
   39      H       0.6473880000     4.3966020000    -6.4701680000
   40      H       2.3394900000     3.7918230000    -6.4592930000
   41      H       1.1617980000     3.1970070000     1.3064860000
   42      H      -0.1580210000    -9.1436230000    -0.9004330000
   43      H       0.7508220000    -9.1494410000     0.6489030000
   44      H      -0.5464150000    -1.4431750000    -0.9315400000
 ----------------------------------------------------------------

   11   -2755.3407656768      7.02e-07  Convergence criterion met
 Total energy in the final basis set =    -2755.3407656768
        RIMP2         total energy =     -2760.4308356067 a.u.

                    Orbital Energies (a.u.)
 --------------------------------------------------------------

 Alpha MOs
 -- Occupied --
-92.0114 -92.0009 -91.9777 -91.9580 -26.3447 -20.6155 -20.5870 -20.5869
-20.5620 -11.4102 -11.3843 -11.3120 -11.3090 -11.3071 -11.3045 -11.3002
-11.2989 -11.2893 -11.2859 -11.2844 -11.2829 -11.2826 -11.2803 -11.2726
-11.2723 -11.2580 -11.2575 -11.2495 -11.2365  -9.0104  -9.0010  -8.9798
 -8.9606  -6.6911  -6.6905  -6.6900  -6.6820  -6.6813  -6.6802  -6.6610
 -6.6601  -6.6588  -6.6418  -6.6409  -6.6398  -1.6617  -1.4679  -1.4103
 -1.4087  -1.3707  -1.2305  -1.2025  -1.1733  -1.1374  -1.1007  -1.0467
 -1.0458  -1.0238  -1.0033  -0.9972  -0.9626  -0.9591  -0.9485  -0.9415
 -0.8933  -0.8712  -0.8644  -0.8118  -0.7982  -0.7902  -0.7841  -0.7676
 -0.7588  -0.7357  -0.7264  -0.7101  -0.7006  -0.6950  -0.6854  -0.6800
 -0.6745  -0.6648  -0.6557  -0.6484  -0.6359  -0.6304  -0.6198  -0.6148
 -0.6118  -0.5994  -0.5927  -0.5777  -0.5712  -0.5658  -0.5579  -0.5544
 -0.5464  -0.5318  -0.5301  -0.5263  -0.5128  -0.5087  -0.5072  -0.5017
 -0.4851  -0.4817  -0.4762  -0.4746  -0.4689  -0.4686  -0.4607  -0.4463
 -0.4245  -0.3993  -0.3848  -0.3698  -0.3511  -0.3022  -0.2891  -0.2199

          Ground-State Mulliken Net Atomic Charges

     Atom                 Charge (a.u.)
  ----------------------------------------
      1 C                    -0.070273
      2 C                    -0.261008
      3 S                    -0.135605
      4 C                    -0.045720
      5 H                     0.193186
      6 C                    -0.053077
      7 C                     0.221086
      8 C                     0.230732
      9 C                    -0.081563
     10 C                    -0.040786
     11 O                    -0.335149
     12 O                    -0.342948
     13 C                    -0.082671
     14 H                     0.120150
     15 H                     0.092099
     16 H                     0.092590
     17 C                    -0.086553
     18 H                     0.123313
     19 H                     0.092532
     20 H                     0.089970
     21 C                    -0.274770
     22 S                    -0.072638
     23 C                     0.072986
     24 H                     0.210493
     25 C                    -0.061553
     26 S                     0.090836
     27 C                    -0.181089
     28 C                    -0.033134
     29 C                    -0.096180
     30 S                     0.012116
     31 C                    -0.156810
     32 C                     0.397286
     33 F                    -0.205697
     34 C                     0.445958
     35 O                    -0.460835
     36 O                    -0.300883
     37 C                    -0.058373
     38 H                     0.121522
     39 H                     0.095275
     40 H                     0.095213
     41 H                     0.217307
     42 H                     0.117259
     43 H                     0.114823
     44 H                     0.190582
  ----------------------------------------
  Sum of atomic charges =     0.000000

                    Cartesian Multipole Moments
 -----------------------------------------------------------------
    Charge (ESU x 10^10)
                 0.0000
    Dipole Moment (Debye)
         X       0.6172      Y       2.8732      Z       2.4197
       Tot       3.8067
    Quadrupole Moments (Debye-Ang)
        XX    -182.1253     XY       8.5171     YY    -176.8058
        XZ      -6.0646     YZ      -9.1488     ZZ    -205.6127

 Total job time:  346.56s(wall), 10802.67s(cpu)
        *  Thank you very much for using Q-Chem.  Have a nice day.  *
