 Q-Chem 5.4, Q-Chem, Inc., Pleasanton, CA (2021)
 Q-Chem 5.4.0 for Intel X86 EM64T Linux

User input:
--------------------------------------------------------------
$molecule
0 1
C	0.254945	-8.517702	0.194917
C	-0.680596	-7.641575	-0.335839
S	1.603876	-7.638634	0.954772
C	-0.354585	-6.264785	-0.147576
H	-1.591356	-7.966081	-0.854836
C	0.879999	-6.072714	0.567090
C	1.379534	-4.787049	0.826731
C	-1.124384	-5.162801	-0.618405
C	-0.622407	-3.874817	-0.362333
C	0.612067	-3.683952	0.355575
O	-2.281166	-5.499772	-1.253677
O	2.542174	-4.459055	1.463859
C	3.060718	-5.329063	2.462679
H	3.841678	-4.755694	2.997507
H	3.530361	-6.238095	2.027179
H	2.274283	-5.637262	3.185132
C	-2.916545	-4.572261	-2.124902
H	-3.703073	-5.139743	-2.657438
H	-2.204417	-4.153131	-2.867810
H	-3.399269	-3.739531	-1.568770
C	0.936109	-2.306654	0.540061
S	-1.341474	-2.306501	-0.761887
C	0.000000	-1.435185	0.000000
H	1.844392	-1.978138	1.060690
C	0.000000	0.000000	0.000000
S	0.234628	0.873813	1.507541
C	0.640889	2.392969	0.718873
C	0.234815	0.873434	-1.067872
C	0.592377	2.216811	-0.686410
S	0.174526	0.637422	-2.805516
C	0.622551	2.330840	-3.054530
C	0.803505	3.015647	-1.862551
F	1.144815	4.307994	-1.819088
C	0.740334	2.763108	-4.456084
O	0.548793	2.017428	-5.406510
O	1.082665	4.069544	-4.569225
C	1.215848	4.546407	-5.916207
H	1.494066	5.611729	-5.833064
H	0.261736	4.436296	-6.470168
H	2.000108	3.981294	-6.459293
H	0.878739	3.286099	1.306486
H	0.700788	-9.143623	-0.587067
H	-0.186556	-9.149441	0.974683
H	0.533530	-1.443175	-0.938979
$end

$rem
JOBTYPE		SP
EXCHANGE	HF
CORRELATION	pRIMP2
BASIS		cc-pvtz
METHOD		rimp2
AUX_BASIS	rimp2-cc-pvtz
SOLVENT_METHOD	PCM
PURECART	11111
SYMMETRY	false
MEM_TOTAL	110000
SCF_CONVERGENCE = 6
THRESH=10
GUI = 2
$end

$solvent
dielectric 4.90
$end
--------------------------------------------------------------

             Standard Nuclear Orientation (Angstroms)
    I     Atom           X                Y                Z
 ----------------------------------------------------------------
    1      C       0.2549450000    -8.5177020000     0.1949170000
    2      C      -0.6805960000    -7.6415750000    -0.3358390000
    3      S       1.6038760000    -7.6386340000     0.9547720000
    4      C      -0.3545850000    -6.2647850000    -0.1475760000
    5      H      -1.5913560000    -7.9660810000    -0.8548360000
    6      C       0.8799990000    -6.0727140000     0.5670900000
    7      C       1.3795340000    -4.7870490000     0.8267310000
    8      C      -1.1243840000    -5.1628010000    -0.6184050000
    9      C      -0.6224070000    -3.8748170000    -0.3623330000
   10      C       0.6120670000    -3.6839520000     0.3555750000
   11      O      -2.2811660000    -5.4997720000    -1.2536770000
   12      O       2.5421740000    -4.4590550000     1.4638590000
   13      C       3.0607180000    -5.3290630000     2.4626790000
   14      H       3.8416780000    -4.7556940000     2.9975070000
   15      H       3.5303610000    -6.2380950000     2.0271790000
   16      H       2.2742830000    -5.6372620000     3.1851320000
   17      C      -2.9165450000    -4.5722610000    -2.1249020000
   18      H      -3.7030730000    -5.1397430000    -2.6574380000
   19      H      -2.2044170000    -4.1531310000    -2.8678100000
   20      H      -3.3992690000    -3.7395310000    -1.5687700000
   21      C       0.9361090000    -2.3066540000     0.5400610000
   22      S      -1.3414740000    -2.3065010000    -0.7618870000
   23      C       0.0000000000    -1.4351850000     0.0000000000
   24      H       1.8443920000    -1.9781380000     1.0606900000
   25      C       0.0000000000     0.0000000000     0.0000000000
   26      S       0.2346280000     0.8738130000     1.5075410000
   27      C       0.6408890000     2.3929690000     0.7188730000
   28      C       0.2348150000     0.8734340000    -1.0678720000
   29      C       0.5923770000     2.2168110000    -0.6864100000
   30      S       0.1745260000     0.6374220000    -2.8055160000
   31      C       0.6225510000     2.3308400000    -3.0545300000
   32      C       0.8035050000     3.0156470000    -1.8625510000
   33      F       1.1448150000     4.3079940000    -1.8190880000
   34      C       0.7403340000     2.7631080000    -4.4560840000
   35      O       0.5487930000     2.0174280000    -5.4065100000
   36      O       1.0826650000     4.0695440000    -4.5692250000
   37      C       1.2158480000     4.5464070000    -5.9162070000
   38      H       1.4940660000     5.6117290000    -5.8330640000
   39      H       0.2617360000     4.4362960000    -6.4701680000
   40      H       2.0001080000     3.9812940000    -6.4592930000
   41      H       0.8787390000     3.2860990000     1.3064860000
   42      H       0.7007880000    -9.1436230000    -0.5870670000
   43      H      -0.1865560000    -9.1494410000     0.9746830000
   44      H       0.5335300000    -1.4431750000    -0.9389790000
 ----------------------------------------------------------------

   11   -2755.3433010990      7.20e-07  Convergence criterion met
 Total energy in the final basis set =    -2755.3433010990
        RIMP2         total energy =     -2760.4331852229 a.u.

                    Orbital Energies (a.u.)
 --------------------------------------------------------------

 Alpha MOs
 -- Occupied --
-92.0135 -92.0003 -91.9761 -91.9585 -26.3443 -20.6153 -20.5874 -20.5866
-20.5618 -11.4100 -11.3839 -11.3097 -11.3091 -11.3070 -11.3030 -11.3011
-11.2986 -11.2892 -11.2855 -11.2838 -11.2831 -11.2827 -11.2802 -11.2734
-11.2724 -11.2584 -11.2582 -11.2498 -11.2372  -9.0122  -9.0004  -8.9784
 -8.9611  -6.6929  -6.6923  -6.6919  -6.6814  -6.6807  -6.6796  -6.6595
 -6.6586  -6.6573  -6.6423  -6.6414  -6.6403  -1.6613  -1.4678  -1.4102
 -1.4090  -1.3705  -1.2303  -1.2023  -1.1736  -1.1373  -1.1008  -1.0470
 -1.0452  -1.0239  -1.0034  -0.9971  -0.9635  -0.9577  -0.9486  -0.9416
 -0.8931  -0.8710  -0.8645  -0.8153  -0.7937  -0.7899  -0.7848  -0.7683
 -0.7586  -0.7354  -0.7261  -0.7098  -0.7007  -0.6946  -0.6852  -0.6801
 -0.6744  -0.6653  -0.6554  -0.6485  -0.6348  -0.6308  -0.6202  -0.6151
 -0.6108  -0.5994  -0.5931  -0.5767  -0.5708  -0.5644  -0.5580  -0.5555
 -0.5515  -0.5317  -0.5289  -0.5248  -0.5132  -0.5093  -0.5073  -0.5012
 -0.4859  -0.4806  -0.4766  -0.4743  -0.4725  -0.4670  -0.4601  -0.4459
 -0.4266  -0.3976  -0.3850  -0.3700  -0.3503  -0.3015  -0.2892  -0.2199

          Ground-State Mulliken Net Atomic Charges

     Atom                 Charge (a.u.)
  ----------------------------------------
      1 C                    -0.070320
      2 C                    -0.258672
      3 S                    -0.134703
      4 C                    -0.045368
      5 H                     0.193635
      6 C                    -0.051266
      7 C                     0.220814
      8 C                     0.230786
      9 C                    -0.081324
     10 C                    -0.053751
     11 O                    -0.335427
     12 O                    -0.343689
     13 C                    -0.082564
     14 H                     0.119866
     15 H                     0.092099
     16 H                     0.092731
     17 C                    -0.086964
     18 H                     0.122909
     19 H                     0.093183
     20 H                     0.090125
     21 C                    -0.247659
     22 S                    -0.070617
     23 C                     0.039486
     24 H                     0.209423
     25 C                    -0.054875
     26 S                     0.088031
     27 C                    -0.186485
     28 C                    -0.003070
     29 C                    -0.103655
     30 S                     0.005112
     31 C                    -0.154957
     32 C                     0.395646
     33 F                    -0.205711
     34 C                     0.444783
     35 O                    -0.460830
     36 O                    -0.300820
     37 C                    -0.058456
     38 H                     0.121490
     39 H                     0.095208
     40 H                     0.095162
     41 H                     0.217066
     42 H                     0.117635
     43 H                     0.115096
     44 H                     0.190896
  ----------------------------------------
  Sum of atomic charges =     0.000000

                    Cartesian Multipole Moments
 -----------------------------------------------------------------
    Charge (ESU x 10^10)
                -0.0000
    Dipole Moment (Debye)
         X       0.8957      Y       2.7155      Z       2.4009
       Tot       3.7337
    Quadrupole Moments (Debye-Ang)
        XX    -192.9192     XY       7.1961     YY    -175.0558
        XZ       7.2659     YZ      -5.6734     ZZ    -195.7210

 Total job time:  359.09s(wall), 11038.47s(cpu)
        *  Thank you very much for using Q-Chem.  Have a nice day.  *
