 Q-Chem 5.4, Q-Chem, Inc., Pleasanton, CA (2021)
 Q-Chem 5.4.0 for Intel X86 EM64T Linux

User input:
--------------------------------------------------------------
$molecule
0 1
C	-0.194917	-8.517702	0.254945
C	0.335839	-7.641575	-0.680596
S	-0.954772	-7.638634	1.603876
C	0.147576	-6.264785	-0.354585
H	0.854836	-7.966081	-1.591356
C	-0.567090	-6.072714	0.879999
C	-0.826731	-4.787049	1.379534
C	0.618405	-5.162801	-1.124384
C	0.362333	-3.874817	-0.622407
C	-0.355575	-3.683952	0.612067
O	1.253677	-5.499772	-2.281166
O	-1.463859	-4.459055	2.542174
C	-2.462679	-5.329063	3.060718
H	-2.997507	-4.755694	3.841678
H	-2.027179	-6.238095	3.530361
H	-3.185132	-5.637262	2.274283
C	2.124902	-4.572261	-2.916545
H	2.657438	-5.139743	-3.703073
H	2.867810	-4.153131	-2.204417
H	1.568770	-3.739531	-3.399269
C	-0.540061	-2.306654	0.936109
S	0.761887	-2.306501	-1.341474
C	0.000000	-1.435185	0.000000
H	-1.060690	-1.978138	1.844392
C	0.000000	0.000000	0.000000
S	0.234628	0.873813	1.507541
C	0.640889	2.392969	0.718873
C	0.234815	0.873434	-1.067872
C	0.592377	2.216811	-0.686410
S	0.174526	0.637422	-2.805516
C	0.622551	2.330840	-3.054530
C	0.803505	3.015647	-1.862551
F	1.144815	4.307994	-1.819088
C	0.740334	2.763108	-4.456084
O	0.548793	2.017428	-5.406510
O	1.082665	4.069544	-4.569225
C	1.215848	4.546407	-5.916207
H	1.494066	5.611729	-5.833064
H	0.261736	4.436296	-6.470168
H	2.000108	3.981294	-6.459293
H	0.878739	3.286099	1.306486
H	0.587067	-9.143623	0.700788
H	-0.974683	-9.149441	-0.186556
H	0.938979	-1.443175	0.533530
$end

$rem
JOBTYPE		SP
EXCHANGE	HF
CORRELATION	pRIMP2
BASIS		cc-pvtz
METHOD		rimp2
AUX_BASIS	rimp2-cc-pvtz
SOLVENT_METHOD	PCM
PURECART	11111
SYMMETRY	false
MEM_TOTAL	110000
SCF_CONVERGENCE = 6
THRESH=10
GUI = 2
$end

$solvent
dielectric 4.90
$end
--------------------------------------------------------------

             Standard Nuclear Orientation (Angstroms)
    I     Atom           X                Y                Z
 ----------------------------------------------------------------
    1      C      -0.1949170000    -8.5177020000     0.2549450000
    2      C       0.3358390000    -7.6415750000    -0.6805960000
    3      S      -0.9547720000    -7.6386340000     1.6038760000
    4      C       0.1475760000    -6.2647850000    -0.3545850000
    5      H       0.8548360000    -7.9660810000    -1.5913560000
    6      C      -0.5670900000    -6.0727140000     0.8799990000
    7      C      -0.8267310000    -4.7870490000     1.3795340000
    8      C       0.6184050000    -5.1628010000    -1.1243840000
    9      C       0.3623330000    -3.8748170000    -0.6224070000
   10      C      -0.3555750000    -3.6839520000     0.6120670000
   11      O       1.2536770000    -5.4997720000    -2.2811660000
   12      O      -1.4638590000    -4.4590550000     2.5421740000
   13      C      -2.4626790000    -5.3290630000     3.0607180000
   14      H      -2.9975070000    -4.7556940000     3.8416780000
   15      H      -2.0271790000    -6.2380950000     3.5303610000
   16      H      -3.1851320000    -5.6372620000     2.2742830000
   17      C       2.1249020000    -4.5722610000    -2.9165450000
   18      H       2.6574380000    -5.1397430000    -3.7030730000
   19      H       2.8678100000    -4.1531310000    -2.2044170000
   20      H       1.5687700000    -3.7395310000    -3.3992690000
   21      C      -0.5400610000    -2.3066540000     0.9361090000
   22      S       0.7618870000    -2.3065010000    -1.3414740000
   23      C       0.0000000000    -1.4351850000     0.0000000000
   24      H      -1.0606900000    -1.9781380000     1.8443920000
   25      C       0.0000000000     0.0000000000     0.0000000000
   26      S       0.2346280000     0.8738130000     1.5075410000
   27      C       0.6408890000     2.3929690000     0.7188730000
   28      C       0.2348150000     0.8734340000    -1.0678720000
   29      C       0.5923770000     2.2168110000    -0.6864100000
   30      S       0.1745260000     0.6374220000    -2.8055160000
   31      C       0.6225510000     2.3308400000    -3.0545300000
   32      C       0.8035050000     3.0156470000    -1.8625510000
   33      F       1.1448150000     4.3079940000    -1.8190880000
   34      C       0.7403340000     2.7631080000    -4.4560840000
   35      O       0.5487930000     2.0174280000    -5.4065100000
   36      O       1.0826650000     4.0695440000    -4.5692250000
   37      C       1.2158480000     4.5464070000    -5.9162070000
   38      H       1.4940660000     5.6117290000    -5.8330640000
   39      H       0.2617360000     4.4362960000    -6.4701680000
   40      H       2.0001080000     3.9812940000    -6.4592930000
   41      H       0.8787390000     3.2860990000     1.3064860000
   42      H       0.5870670000    -9.1436230000     0.7007880000
   43      H      -0.9746830000    -9.1494410000    -0.1865560000
   44      H       0.9389790000    -1.4431750000     0.5335300000
 ----------------------------------------------------------------

   11   -2755.3408992418      8.43e-07  Convergence criterion met
 Total energy in the final basis set =    -2755.3408992418
        RIMP2         total energy =     -2760.4309775614 a.u.

                    Orbital Energies (a.u.)
 --------------------------------------------------------------

 Alpha MOs
 -- Occupied --
-92.0130 -91.9943 -91.9800 -91.9595 -26.3422 -20.6146 -20.5880 -20.5879
-20.5611 -11.4090 -11.3807 -11.3099 -11.3097 -11.3084 -11.3044 -11.2970
-11.2934 -11.2887 -11.2846 -11.2843 -11.2839 -11.2834 -11.2829 -11.2747
-11.2719 -11.2603 -11.2593 -11.2510 -11.2398  -9.0121  -8.9946  -8.9821
 -8.9620  -6.6929  -6.6923  -6.6917  -6.6756  -6.6749  -6.6737  -6.6632
 -6.6624  -6.6610  -6.6433  -6.6423  -6.6413  -1.6593  -1.4670  -1.4114
 -1.4097  -1.3697  -1.2302  -1.2025  -1.1751  -1.1374  -1.1007  -1.0481
 -1.0438  -1.0242  -1.0044  -0.9977  -0.9634  -0.9572  -0.9493  -0.9416
 -0.8946  -0.8683  -0.8658  -0.8150  -0.7934  -0.7899  -0.7848  -0.7696
 -0.7562  -0.7378  -0.7243  -0.7139  -0.6971  -0.6897  -0.6844  -0.6809
 -0.6736  -0.6631  -0.6565  -0.6493  -0.6379  -0.6307  -0.6212  -0.6158
 -0.6110  -0.5992  -0.5930  -0.5769  -0.5711  -0.5650  -0.5593  -0.5583
 -0.5490  -0.5334  -0.5311  -0.5259  -0.5141  -0.5112  -0.5080  -0.5017
 -0.4847  -0.4786  -0.4766  -0.4736  -0.4695  -0.4673  -0.4602  -0.4480
 -0.4307  -0.3951  -0.3861  -0.3712  -0.3515  -0.2978  -0.2887  -0.2192

          Ground-State Mulliken Net Atomic Charges

     Atom                 Charge (a.u.)
  ----------------------------------------
      1 C                    -0.070570
      2 C                    -0.251602
      3 S                    -0.133166
      4 C                    -0.050090
      5 H                     0.194632
      6 C                    -0.048334
      7 C                     0.216907
      8 C                     0.230575
      9 C                    -0.073601
     10 C                    -0.012125
     11 O                    -0.334135
     12 O                    -0.343653
     13 C                    -0.082770
     14 H                     0.120009
     15 H                     0.092145
     16 H                     0.093259
     17 C                    -0.089388
     18 H                     0.124492
     19 H                     0.092752
     20 H                     0.092292
     21 C                    -0.333698
     22 S                    -0.097103
     23 C                     0.148884
     24 H                     0.199617
     25 C                    -0.010890
     26 S                     0.082831
     27 C                    -0.210072
     28 C                    -0.083689
     29 C                    -0.093020
     30 S                     0.002159
     31 C                    -0.160249
     32 C                     0.406237
     33 F                    -0.208243
     34 C                     0.441921
     35 O                    -0.460107
     36 O                    -0.300575
     37 C                    -0.058628
     38 H                     0.121330
     39 H                     0.095176
     40 H                     0.094978
     41 H                     0.216506
     42 H                     0.118488
     43 H                     0.116255
     44 H                     0.204265
  ----------------------------------------
  Sum of atomic charges =     0.000000

                    Cartesian Multipole Moments
 -----------------------------------------------------------------
    Charge (ESU x 10^10)
                -0.0000
    Dipole Moment (Debye)
         X       1.3208      Y       1.6586      Z       3.0911
       Tot       3.7484
    Quadrupole Moments (Debye-Ang)
        XX    -190.2516     XY       1.6855     YY    -171.4432
        XZ     -11.2822     YZ      -3.5015     ZZ    -198.4845

 Total job time:  368.42s(wall), 11245.06s(cpu)
        *  Thank you very much for using Q-Chem.  Have a nice day.  *
