 Q-Chem 5.4, Q-Chem, Inc., Pleasanton, CA (2021)
 Q-Chem 5.4.0 for Intel X86 EM64T Linux

User input:
--------------------------------------------------------------
$molecule
0 1
C	-0.172904	-8.517702	-0.270358
C	0.524688	-7.641575	0.548363
S	-1.180599	-7.638634	-1.445750
C	0.282727	-6.264785	0.259951
H	1.203014	-7.966081	1.347559
C	-0.632972	-6.072714	-0.833868
C	-1.013580	-4.787049	-1.248701
C	0.845068	-5.162801	0.965673
C	0.460946	-3.874817	0.553357
C	-0.453541	-3.683952	-0.543470
O	1.714812	-5.499772	1.958276
O	-1.888193	-4.459055	-2.245053
C	-2.033848	-5.329063	-3.360989
H	-2.584788	-4.755694	-4.130667
H	-2.624118	-6.238095	-3.112380
H	-1.047748	-5.637262	-3.770895
C	2.013896	-4.572261	2.994272
H	2.570853	-5.139743	3.763700
H	1.090625	-4.153131	3.448815
H	2.657717	-3.739531	2.636780
C	-0.694943	-2.306654	-0.827659
S	0.999993	-2.306501	1.174750
C	-0.000000	-1.435185	-0.000000
H	-1.370385	-1.978138	-1.627541
C	0.000000	0.000000	0.000000
S	0.783786	0.451972	1.507541
C	2.145261	1.238908	0.718873
C	0.783650	0.451572	-1.067872
C	1.986396	1.148648	-0.686410
S	0.574133	0.327317	-2.805516
C	2.088363	1.207943	-3.054530
C	2.700548	1.564221	-1.862551
F	3.855718	2.236706	-1.819088
C	2.477307	1.430318	-4.456084
O	1.814592	1.038482	-5.406510
O	3.643162	2.112042	-4.569225
C	4.074530	2.355061	-5.916207
H	5.024556	2.911627	-5.833064
H	3.322010	2.951860	-6.470168
H	4.229490	1.400910	-6.459293
H	2.944986	1.702260	1.306486
H	-0.859314	-9.143623	0.311979
H	0.508666	-9.149441	-0.852097
H	-0.822504	-1.443175	0.699874
$end

$rem
JOBTYPE		SP
EXCHANGE	HF
CORRELATION	pRIMP2
BASIS		cc-pvtz
METHOD		rimp2
AUX_BASIS	rimp2-cc-pvtz
SOLVENT_METHOD	PCM
PURECART	11111
SYMMETRY	false
MEM_TOTAL	110000
SCF_CONVERGENCE = 6
THRESH=10
GUI = 2
$end

$solvent
dielectric 4.90
$end
--------------------------------------------------------------

             Standard Nuclear Orientation (Angstroms)
    I     Atom           X                Y                Z
 ----------------------------------------------------------------
    1      C      -0.1729040000    -8.5177020000    -0.2703580000
    2      C       0.5246880000    -7.6415750000     0.5483630000
    3      S      -1.1805990000    -7.6386340000    -1.4457500000
    4      C       0.2827270000    -6.2647850000     0.2599510000
    5      H       1.2030140000    -7.9660810000     1.3475590000
    6      C      -0.6329720000    -6.0727140000    -0.8338680000
    7      C      -1.0135800000    -4.7870490000    -1.2487010000
    8      C       0.8450680000    -5.1628010000     0.9656730000
    9      C       0.4609460000    -3.8748170000     0.5533570000
   10      C      -0.4535410000    -3.6839520000    -0.5434700000
   11      O       1.7148120000    -5.4997720000     1.9582760000
   12      O      -1.8881930000    -4.4590550000    -2.2450530000
   13      C      -2.0338480000    -5.3290630000    -3.3609890000
   14      H      -2.5847880000    -4.7556940000    -4.1306670000
   15      H      -2.6241180000    -6.2380950000    -3.1123800000
   16      H      -1.0477480000    -5.6372620000    -3.7708950000
   17      C       2.0138960000    -4.5722610000     2.9942720000
   18      H       2.5708530000    -5.1397430000     3.7637000000
   19      H       1.0906250000    -4.1531310000     3.4488150000
   20      H       2.6577170000    -3.7395310000     2.6367800000
   21      C      -0.6949430000    -2.3066540000    -0.8276590000
   22      S       0.9999930000    -2.3065010000     1.1747500000
   23      C       0.0000000000    -1.4351850000     0.0000000000
   24      H      -1.3703850000    -1.9781380000    -1.6275410000
   25      C       0.0000000000     0.0000000000     0.0000000000
   26      S       0.7837860000     0.4519720000     1.5075410000
   27      C       2.1452610000     1.2389080000     0.7188730000
   28      C       0.7836500000     0.4515720000    -1.0678720000
   29      C       1.9863960000     1.1486480000    -0.6864100000
   30      S       0.5741330000     0.3273170000    -2.8055160000
   31      C       2.0883630000     1.2079430000    -3.0545300000
   32      C       2.7005480000     1.5642210000    -1.8625510000
   33      F       3.8557180000     2.2367060000    -1.8190880000
   34      C       2.4773070000     1.4303180000    -4.4560840000
   35      O       1.8145920000     1.0384820000    -5.4065100000
   36      O       3.6431620000     2.1120420000    -4.5692250000
   37      C       4.0745300000     2.3550610000    -5.9162070000
   38      H       5.0245560000     2.9116270000    -5.8330640000
   39      H       3.3220100000     2.9518600000    -6.4701680000
   40      H       4.2294900000     1.4009100000    -6.4592930000
   41      H       2.9449860000     1.7022600000     1.3064860000
   42      H      -0.8593140000    -9.1436230000     0.3119790000
   43      H       0.5086660000    -9.1494410000    -0.8520970000
   44      H      -0.8225040000    -1.4431750000     0.6998740000
 ----------------------------------------------------------------

   11   -2755.2654047369      8.49e-07  Convergence criterion met
 Total energy in the final basis set =    -2755.2654047369
        RIMP2         total energy =     -2760.3702347197 a.u.

                    Orbital Energies (a.u.)
 --------------------------------------------------------------

 Alpha MOs
 -- Occupied --
-92.0148 -92.0118 -91.9718 -91.9537 -26.3473 -20.6165 -20.5850 -20.5824
-20.5630 -11.4117 -11.3885 -11.3381 -11.3201 -11.3063 -11.3003 -11.2988
-11.2899 -11.2896 -11.2825 -11.2809 -11.2763 -11.2720 -11.2705 -11.2665
-11.2659 -11.2538 -11.2491 -11.2450 -11.2260  -9.0149  -9.0115  -8.9744
 -8.9564  -6.6955  -6.6946  -6.6944  -6.6923  -6.6916  -6.6906  -6.6553
 -6.6544  -6.6530  -6.6377  -6.6367  -6.6357  -1.6643  -1.4690  -1.4071
 -1.4055  -1.3718  -1.2417  -1.1996  -1.1700  -1.1420  -1.0964  -1.0497
 -1.0423  -1.0295  -1.0012  -0.9928  -0.9670  -0.9600  -0.9454  -0.9392
 -0.8912  -0.8733  -0.8589  -0.8182  -0.7994  -0.7885  -0.7802  -0.7634
 -0.7586  -0.7373  -0.7289  -0.7172  -0.6961  -0.6893  -0.6863  -0.6786
 -0.6755  -0.6623  -0.6537  -0.6461  -0.6373  -0.6307  -0.6155  -0.6123
 -0.6103  -0.6038  -0.5893  -0.5800  -0.5683  -0.5634  -0.5561  -0.5539
 -0.5348  -0.5340  -0.5307  -0.5239  -0.5158  -0.5083  -0.5056  -0.4987
 -0.4877  -0.4819  -0.4774  -0.4743  -0.4718  -0.4648  -0.4489  -0.4419
 -0.4254  -0.3892  -0.3821  -0.3649  -0.3488  -0.3122  -0.2845  -0.2111

          Ground-State Mulliken Net Atomic Charges

     Atom                 Charge (a.u.)
  ----------------------------------------
      1 C                    -0.068353
      2 C                    -0.290941
      3 S                    -0.144952
      4 C                    -0.038061
      5 H                     0.189223
      6 C                    -0.056616
      7 C                     0.224491
      8 C                     0.211870
      9 C                    -0.079292
     10 C                    -0.054574
     11 O                    -0.336886
     12 O                    -0.344054
     13 C                    -0.082612
     14 H                     0.119481
     15 H                     0.091955
     16 H                     0.092504
     17 C                    -0.086779
     18 H                     0.122433
     19 H                     0.089864
     20 H                     0.088275
     21 C                    -0.285076
     22 S                    -0.096117
     23 C                     0.049777
     24 H                     0.209582
     25 C                    -0.204392
     26 S                     0.099514
     27 C                    -0.112063
     28 C                     0.134174
     29 C                    -0.129535
     30 S                     0.057330
     31 C                    -0.154811
     32 C                     0.399841
     33 F                    -0.203741
     34 C                     0.448260
     35 O                    -0.461645
     36 O                    -0.301204
     37 C                    -0.058132
     38 H                     0.121779
     39 H                     0.095331
     40 H                     0.095626
     41 H                     0.223738
     42 H                     0.113066
     43 H                     0.110644
     44 H                     0.201077
  ----------------------------------------
  Sum of atomic charges =     0.000000

                    Cartesian Multipole Moments
 -----------------------------------------------------------------
    Charge (ESU x 10^10)
                -0.0000
    Dipole Moment (Debye)
         X       3.4641      Y       4.6535      Z       2.8399
       Tot       6.4591
    Quadrupole Moments (Debye-Ang)
        XX    -185.6897     XY       6.5878     YY    -203.7259
        XZ      -0.3838     YZ      -5.8744     ZZ    -187.7217

 Total job time:  330.72s(wall), 10843.26s(cpu)
        *  Thank you very much for using Q-Chem.  Have a nice day.  *
