 Q-Chem 5.4, Q-Chem, Inc., Pleasanton, CA (2021)
 Q-Chem 5.4.0 for Intel X86 EM64T Linux

User input:
--------------------------------------------------------------
$molecule
0 1
C	0.320589	-8.517702	-0.014560
C	-0.737240	-7.641575	0.180211
S	1.842356	-7.638634	-0.299553
C	-0.366488	-6.264785	0.114873
H	-1.768528	-7.966081	0.368061
C	1.038637	-6.072714	-0.131236
C	1.588197	-4.787049	-0.253435
C	-1.258831	-5.162801	0.249014
C	-0.709695	-3.874817	0.122513
C	0.697430	-3.683952	-0.121043
O	-2.553323	-5.499772	0.505933
O	2.888369	-4.459055	-0.512697
C	3.927625	-5.329063	-0.080869
H	4.869656	-4.755694	-0.173159
H	4.007459	-6.238095	-0.716363
H	3.789565	-5.637262	0.978072
C	-3.600064	-4.572261	0.246949
H	-4.544887	-5.139743	0.344574
H	-3.532074	-4.153131	-0.779898
H	-3.612378	-3.739531	0.983261
C	1.064246	-2.306654	-0.188009
S	-1.517360	-2.306501	0.278644
C	0.000000	-1.435185	0.000000
H	2.094685	-1.978138	-0.373017
C	0.000000	0.000000	0.000000
S	0.234628	0.873813	1.507541
C	0.640889	2.392969	0.718873
C	0.234815	0.873434	-1.067872
C	0.592377	2.216811	-0.686410
S	0.174526	0.637422	-2.805516
C	0.622551	2.330840	-3.054530
C	0.803505	3.015647	-1.862551
F	1.144815	4.307994	-1.819088
C	0.740334	2.763108	-4.456084
O	0.548793	2.017428	-5.406510
O	1.082665	4.069544	-4.569225
C	1.215848	4.546407	-5.916207
H	1.494066	5.611729	-5.833064
H	0.261736	4.436296	-6.470168
H	2.000108	3.981294	-6.459293
H	0.878739	3.286099	1.306486
H	0.159475	-9.143623	-0.900177
H	0.483604	-9.149441	0.866566
H	-0.194856	-1.443175	-1.062246
$end

$rem
JOBTYPE		SP
EXCHANGE	HF
CORRELATION	pRIMP2
BASIS		cc-pvtz
METHOD		rimp2
AUX_BASIS	rimp2-cc-pvtz
SOLVENT_METHOD	PCM
PURECART	11111
SYMMETRY	false
MEM_TOTAL	110000
SCF_CONVERGENCE = 6
THRESH=10
GUI = 2
$end

$solvent
dielectric 4.90
$end
--------------------------------------------------------------

             Standard Nuclear Orientation (Angstroms)
    I     Atom           X                Y                Z
 ----------------------------------------------------------------
    1      C       0.3205890000    -8.5177020000    -0.0145600000
    2      C      -0.7372400000    -7.6415750000     0.1802110000
    3      S       1.8423560000    -7.6386340000    -0.2995530000
    4      C      -0.3664880000    -6.2647850000     0.1148730000
    5      H      -1.7685280000    -7.9660810000     0.3680610000
    6      C       1.0386370000    -6.0727140000    -0.1312360000
    7      C       1.5881970000    -4.7870490000    -0.2534350000
    8      C      -1.2588310000    -5.1628010000     0.2490140000
    9      C      -0.7096950000    -3.8748170000     0.1225130000
   10      C       0.6974300000    -3.6839520000    -0.1210430000
   11      O      -2.5533230000    -5.4997720000     0.5059330000
   12      O       2.8883690000    -4.4590550000    -0.5126970000
   13      C       3.9276250000    -5.3290630000    -0.0808690000
   14      H       4.8696560000    -4.7556940000    -0.1731590000
   15      H       4.0074590000    -6.2380950000    -0.7163630000
   16      H       3.7895650000    -5.6372620000     0.9780720000
   17      C      -3.6000640000    -4.5722610000     0.2469490000
   18      H      -4.5448870000    -5.1397430000     0.3445740000
   19      H      -3.5320740000    -4.1531310000    -0.7798980000
   20      H      -3.6123780000    -3.7395310000     0.9832610000
   21      C       1.0642460000    -2.3066540000    -0.1880090000
   22      S      -1.5173600000    -2.3065010000     0.2786440000
   23      C       0.0000000000    -1.4351850000     0.0000000000
   24      H       2.0946850000    -1.9781380000    -0.3730170000
   25      C       0.0000000000     0.0000000000     0.0000000000
   26      S       0.2346280000     0.8738130000     1.5075410000
   27      C       0.6408890000     2.3929690000     0.7188730000
   28      C       0.2348150000     0.8734340000    -1.0678720000
   29      C       0.5923770000     2.2168110000    -0.6864100000
   30      S       0.1745260000     0.6374220000    -2.8055160000
   31      C       0.6225510000     2.3308400000    -3.0545300000
   32      C       0.8035050000     3.0156470000    -1.8625510000
   33      F       1.1448150000     4.3079940000    -1.8190880000
   34      C       0.7403340000     2.7631080000    -4.4560840000
   35      O       0.5487930000     2.0174280000    -5.4065100000
   36      O       1.0826650000     4.0695440000    -4.5692250000
   37      C       1.2158480000     4.5464070000    -5.9162070000
   38      H       1.4940660000     5.6117290000    -5.8330640000
   39      H       0.2617360000     4.4362960000    -6.4701680000
   40      H       2.0001080000     3.9812940000    -6.4592930000
   41      H       0.8787390000     3.2860990000     1.3064860000
   42      H       0.1594750000    -9.1436230000    -0.9001770000
   43      H       0.4836040000    -9.1494410000     0.8665660000
   44      H      -0.1948560000    -1.4431750000    -1.0622460000
 ----------------------------------------------------------------

   11   -2755.3447309246      6.75e-07  Convergence criterion met
 Total energy in the final basis set =    -2755.3447309246
        RIMP2         total energy =     -2760.4332101676 a.u.

                    Orbital Energies (a.u.)
 --------------------------------------------------------------

 Alpha MOs
 -- Occupied --
-92.0111 -92.0008 -91.9760 -91.9581 -26.3447 -20.6154 -20.5870 -20.5866
-20.5619 -11.4102 -11.3844 -11.3130 -11.3088 -11.3067 -11.3055 -11.2997
-11.2988 -11.2893 -11.2855 -11.2841 -11.2827 -11.2822 -11.2799 -11.2728
-11.2716 -11.2579 -11.2575 -11.2495 -11.2367  -9.0101  -9.0009  -8.9782
 -8.9607  -6.6909  -6.6902  -6.6898  -6.6820  -6.6812  -6.6801  -6.6593
 -6.6584  -6.6571  -6.6419  -6.6410  -6.6400  -1.6617  -1.4679  -1.4100
 -1.4087  -1.3706  -1.2301  -1.2023  -1.1732  -1.1372  -1.1007  -1.0468
 -1.0454  -1.0237  -1.0031  -0.9968  -0.9627  -0.9587  -0.9484  -0.9415
 -0.8929  -0.8712  -0.8646  -0.8132  -0.7964  -0.7902  -0.7843  -0.7678
 -0.7590  -0.7352  -0.7265  -0.7104  -0.7010  -0.6948  -0.6854  -0.6797
 -0.6745  -0.6650  -0.6553  -0.6483  -0.6351  -0.6302  -0.6199  -0.6148
 -0.6113  -0.5993  -0.5924  -0.5775  -0.5707  -0.5653  -0.5575  -0.5541
 -0.5487  -0.5317  -0.5291  -0.5258  -0.5128  -0.5088  -0.5070  -0.5015
 -0.4852  -0.4814  -0.4760  -0.4746  -0.4702  -0.4681  -0.4602  -0.4460
 -0.4215  -0.4012  -0.3848  -0.3699  -0.3508  -0.3029  -0.2890  -0.2208

          Ground-State Mulliken Net Atomic Charges

     Atom                 Charge (a.u.)
  ----------------------------------------
      1 C                    -0.070357
      2 C                    -0.259941
      3 S                    -0.135345
      4 C                    -0.044753
      5 H                     0.193383
      6 C                    -0.052458
      7 C                     0.223059
      8 C                     0.229877
      9 C                    -0.085766
     10 C                    -0.053116
     11 O                    -0.335471
     12 O                    -0.343181
     13 C                    -0.082650
     14 H                     0.119986
     15 H                     0.092126
     16 H                     0.092569
     17 C                    -0.086224
     18 H                     0.122794
     19 H                     0.092513
     20 H                     0.090197
     21 C                    -0.238391
     22 S                    -0.070661
     23 C                     0.057840
     24 H                     0.207143
     25 C                    -0.080814
     26 S                     0.087929
     27 C                    -0.177121
     28 C                    -0.001822
     29 C                    -0.103088
     30 S                     0.004921
     31 C                    -0.159156
     32 C                     0.398647
     33 F                    -0.205502
     34 C                     0.445234
     35 O                    -0.461140
     36 O                    -0.300884
     37 C                    -0.058443
     38 H                     0.121500
     39 H                     0.095244
     40 H                     0.095211
     41 H                     0.217645
     42 H                     0.117414
     43 H                     0.114933
     44 H                     0.186118
  ----------------------------------------
  Sum of atomic charges =     0.000000

                    Cartesian Multipole Moments
 -----------------------------------------------------------------
    Charge (ESU x 10^10)
                -0.0000
    Dipole Moment (Debye)
         X       0.5729      Y       2.9890      Z       2.3577
       Tot       3.8498
    Quadrupole Moments (Debye-Ang)
        XX    -182.8157     XY       7.7168     YY    -175.6440
        XZ       0.9637     YZ      -8.0888     ZZ    -205.8968

 Total job time:  355.23s(wall), 11034.30s(cpu)
        *  Thank you very much for using Q-Chem.  Have a nice day.  *
