 Q-Chem 5.4, Q-Chem, Inc., Pleasanton, CA (2021)
 Q-Chem 5.4.0 for Intel X86 EM64T Linux

User input:
--------------------------------------------------------------
$molecule
0 1
C	0.254945	-8.517702	0.194917
C	-0.680596	-7.641575	-0.335839
S	1.603876	-7.638634	0.954772
C	-0.354585	-6.264785	-0.147576
H	-1.591356	-7.966081	-0.854836
C	0.879999	-6.072714	0.567090
C	1.379534	-4.787049	0.826731
C	-1.124384	-5.162801	-0.618405
C	-0.622407	-3.874817	-0.362333
C	0.612067	-3.683952	0.355575
O	-2.281166	-5.499772	-1.253677
O	2.542174	-4.459055	1.463859
C	3.060718	-5.329063	2.462679
H	3.841678	-4.755694	2.997507
H	3.530361	-6.238095	2.027179
H	2.274283	-5.637262	3.185132
C	-2.916545	-4.572261	-2.124902
H	-3.703073	-5.139743	-2.657438
H	-2.204417	-4.153131	-2.867810
H	-3.399269	-3.739531	-1.568770
C	0.936109	-2.306654	0.540061
S	-1.341474	-2.306501	-0.761887
C	-0.000000	-1.435185	-0.000000
H	1.844392	-1.978138	1.060690
C	0.000000	0.000000	0.000000
S	0.157577	0.890937	1.507541
C	0.429889	2.439720	0.718873
C	0.157797	0.890576	-1.067872
C	0.396915	2.260004	-0.686410
S	0.118307	0.650207	-2.805516
C	0.417036	2.376229	-3.054530
C	0.537616	3.074202	-1.862551
F	0.764992	4.391378	-1.819088
C	0.496696	2.817118	-4.456084
O	0.370874	2.057582	-5.406510
O	0.723861	4.148418	-4.569225
C	0.814976	4.635075	-5.916207
H	0.999286	5.720591	-5.833064
H	-0.125909	4.442226	-6.470168
H	1.645504	4.140465	-6.459293
H	0.588993	3.350182	1.306486
H	0.700788	-9.143623	-0.587067
H	-0.186556	-9.149441	0.974683
H	0.533530	-1.443175	-0.938979
$end

$rem
JOBTYPE		SP
EXCHANGE	HF
CORRELATION	pRIMP2
BASIS		cc-pvtz
METHOD		rimp2
AUX_BASIS	rimp2-cc-pvtz
SOLVENT_METHOD	PCM
PURECART	11111
SYMMETRY	false
MEM_TOTAL	110000
SCF_CONVERGENCE = 6
THRESH=10
GUI = 2
$end

$solvent
dielectric 4.90
$end
--------------------------------------------------------------

             Standard Nuclear Orientation (Angstroms)
    I     Atom           X                Y                Z
 ----------------------------------------------------------------
    1      C       0.2549450000    -8.5177020000     0.1949170000
    2      C      -0.6805960000    -7.6415750000    -0.3358390000
    3      S       1.6038760000    -7.6386340000     0.9547720000
    4      C      -0.3545850000    -6.2647850000    -0.1475760000
    5      H      -1.5913560000    -7.9660810000    -0.8548360000
    6      C       0.8799990000    -6.0727140000     0.5670900000
    7      C       1.3795340000    -4.7870490000     0.8267310000
    8      C      -1.1243840000    -5.1628010000    -0.6184050000
    9      C      -0.6224070000    -3.8748170000    -0.3623330000
   10      C       0.6120670000    -3.6839520000     0.3555750000
   11      O      -2.2811660000    -5.4997720000    -1.2536770000
   12      O       2.5421740000    -4.4590550000     1.4638590000
   13      C       3.0607180000    -5.3290630000     2.4626790000
   14      H       3.8416780000    -4.7556940000     2.9975070000
   15      H       3.5303610000    -6.2380950000     2.0271790000
   16      H       2.2742830000    -5.6372620000     3.1851320000
   17      C      -2.9165450000    -4.5722610000    -2.1249020000
   18      H      -3.7030730000    -5.1397430000    -2.6574380000
   19      H      -2.2044170000    -4.1531310000    -2.8678100000
   20      H      -3.3992690000    -3.7395310000    -1.5687700000
   21      C       0.9361090000    -2.3066540000     0.5400610000
   22      S      -1.3414740000    -2.3065010000    -0.7618870000
   23      C       0.0000000000    -1.4351850000     0.0000000000
   24      H       1.8443920000    -1.9781380000     1.0606900000
   25      C       0.0000000000     0.0000000000     0.0000000000
   26      S       0.1575770000     0.8909370000     1.5075410000
   27      C       0.4298890000     2.4397200000     0.7188730000
   28      C       0.1577970000     0.8905760000    -1.0678720000
   29      C       0.3969150000     2.2600040000    -0.6864100000
   30      S       0.1183070000     0.6502070000    -2.8055160000
   31      C       0.4170360000     2.3762290000    -3.0545300000
   32      C       0.5376160000     3.0742020000    -1.8625510000
   33      F       0.7649920000     4.3913780000    -1.8190880000
   34      C       0.4966960000     2.8171180000    -4.4560840000
   35      O       0.3708740000     2.0575820000    -5.4065100000
   36      O       0.7238610000     4.1484180000    -4.5692250000
   37      C       0.8149760000     4.6350750000    -5.9162070000
   38      H       0.9992860000     5.7205910000    -5.8330640000
   39      H      -0.1259090000     4.4422260000    -6.4701680000
   40      H       1.6455040000     4.1404650000    -6.4592930000
   41      H       0.5889930000     3.3501820000     1.3064860000
   42      H       0.7007880000    -9.1436230000    -0.5870670000
   43      H      -0.1865560000    -9.1494410000     0.9746830000
   44      H       0.5335300000    -1.4431750000    -0.9389790000
 ----------------------------------------------------------------

   11   -2755.3458680724      7.20e-07  Convergence criterion met
 Total energy in the final basis set =    -2755.3458680724
        RIMP2         total energy =     -2760.4350758402 a.u.

                    Orbital Energies (a.u.)
 --------------------------------------------------------------

 Alpha MOs
 -- Occupied --
-92.0132 -91.9998 -91.9766 -91.9586 -26.3442 -20.6153 -20.5874 -20.5867
-20.5617 -11.4099 -11.3837 -11.3092 -11.3089 -11.3073 -11.3038 -11.3008
-11.2985 -11.2891 -11.2853 -11.2839 -11.2831 -11.2829 -11.2806 -11.2736
-11.2724 -11.2587 -11.2583 -11.2500 -11.2375  -9.0119  -8.9999  -8.9789
 -8.9612  -6.6927  -6.6921  -6.6916  -6.6809  -6.6802  -6.6791  -6.6600
 -6.6591  -6.6578  -6.6424  -6.6415  -6.6405  -1.6612  -1.4677  -1.4103
 -1.4091  -1.3704  -1.2299  -1.2025  -1.1737  -1.1371  -1.1009  -1.0470
 -1.0452  -1.0237  -1.0036  -0.9972  -0.9634  -0.9577  -0.9486  -0.9416
 -0.8933  -0.8710  -0.8647  -0.8151  -0.7937  -0.7900  -0.7849  -0.7685
 -0.7585  -0.7355  -0.7260  -0.7097  -0.7007  -0.6947  -0.6852  -0.6802
 -0.6743  -0.6651  -0.6555  -0.6486  -0.6348  -0.6309  -0.6203  -0.6152
 -0.6109  -0.5993  -0.5929  -0.5770  -0.5706  -0.5644  -0.5582  -0.5559
 -0.5509  -0.5317  -0.5294  -0.5250  -0.5133  -0.5091  -0.5074  -0.5014
 -0.4860  -0.4803  -0.4769  -0.4743  -0.4726  -0.4669  -0.4603  -0.4461
 -0.4266  -0.3977  -0.3853  -0.3701  -0.3503  -0.3009  -0.2894  -0.2202

          Ground-State Mulliken Net Atomic Charges

     Atom                 Charge (a.u.)
  ----------------------------------------
      1 C                    -0.070368
      2 C                    -0.257661
      3 S                    -0.134433
      4 C                    -0.045492
      5 H                     0.193747
      6 C                    -0.051074
      7 C                     0.221545
      8 C                     0.230666
      9 C                    -0.081788
     10 C                    -0.057663
     11 O                    -0.335302
     12 O                    -0.343696
     13 C                    -0.082611
     14 H                     0.119913
     15 H                     0.092109
     16 H                     0.092737
     17 C                    -0.087077
     18 H                     0.122979
     19 H                     0.093314
     20 H                     0.090158
     21 C                    -0.242994
     22 S                    -0.070337
     23 C                     0.047408
     24 H                     0.209050
     25 C                    -0.059802
     26 S                     0.088060
     27 C                    -0.187161
     28 C                    -0.000971
     29 C                    -0.108648
     30 S                     0.003279
     31 C                    -0.155640
     32 C                     0.396842
     33 F                    -0.205915
     34 C                     0.444704
     35 O                    -0.460891
     36 O                    -0.300738
     37 C                    -0.058607
     38 H                     0.121491
     39 H                     0.095230
     40 H                     0.095158
     41 H                     0.217093
     42 H                     0.117744
     43 H                     0.115225
     44 H                     0.190413
  ----------------------------------------
  Sum of atomic charges =     0.000000

                    Cartesian Multipole Moments
 -----------------------------------------------------------------
    Charge (ESU x 10^10)
                -0.0000
    Dipole Moment (Debye)
         X       0.6341      Y       2.6495      Z       2.4042
       Tot       3.6335
    Quadrupole Moments (Debye-Ang)
        XX    -193.4777     XY       5.9648     YY    -174.0205
        XZ       7.9528     YZ      -5.7750     ZZ    -195.8089

 Total job time:  351.22s(wall), 10866.34s(cpu)
        *  Thank you very much for using Q-Chem.  Have a nice day.  *
