 Q-Chem 5.4, Q-Chem, Inc., Pleasanton, CA (2021)
 Q-Chem 5.4.0 for Intel X86 EM64T Linux

User input:
--------------------------------------------------------------
$molecule
0 1
C	0.306235	-8.517702	0.095966
C	-0.754415	-7.641575	-0.082807
S	1.833702	-7.638634	0.348635
C	-0.383675	-6.264785	-0.017401
H	-1.787757	-7.966081	-0.259008
C	1.020885	-6.072714	0.231913
C	1.579097	-4.787049	0.305044
C	-1.268082	-5.162801	-0.196549
C	-0.708796	-3.874817	-0.127606
C	0.696769	-3.683952	0.124792
O	-2.572378	-5.499772	-0.397867
O	2.889532	-4.459055	0.506103
C	3.718420	-5.329063	1.267335
H	4.635204	-4.755694	1.502804
H	4.010790	-6.238095	0.697471
H	3.226506	-5.637262	2.215194
C	-3.467415	-4.572261	-0.999238
H	-4.388648	-5.139743	-1.230649
H	-3.052323	-4.153131	-1.940905
H	-3.730819	-3.739531	-0.311543
C	1.064366	-2.306654	0.187323
S	-1.521154	-2.306501	-0.257128
C	0.000000	-1.435185	0.000000
H	2.095939	-1.978138	0.365903
C	0.000000	0.000000	0.000000
S	0.000474	0.904764	1.507541
C	-0.000295	2.477305	0.718873
C	0.000752	0.904447	-1.067872
C	-0.001560	2.294593	-0.686410
S	0.003602	0.660872	-2.805516
C	-0.001928	2.412546	-3.054530
C	-0.004381	3.120854	-1.862551
F	-0.009185	4.457503	-1.819088
C	-0.000038	2.860570	-4.456084
O	0.007944	2.090724	-5.406510
O	-0.007501	4.211092	-4.569225
C	-0.002278	4.706177	-5.916207
H	-0.009265	5.807207	-5.833064
H	-0.895381	4.352875	-6.470168
H	0.901521	4.363301	-6.459293
H	-0.001708	3.401562	1.306486
H	0.457736	-9.143623	-0.791346
H	0.158056	-9.149441	0.979708
H	0.180205	-1.443175	-1.064830
$end

$rem
JOBTYPE		SP
EXCHANGE	HF
CORRELATION	pRIMP2
BASIS		cc-pvtz
METHOD		rimp2
AUX_BASIS	rimp2-cc-pvtz
SOLVENT_METHOD	PCM
PURECART	11111
SYMMETRY	false
MEM_TOTAL	110000
SCF_CONVERGENCE = 6
THRESH=10
GUI = 2
$end

$solvent
dielectric 4.90
$end
--------------------------------------------------------------

             Standard Nuclear Orientation (Angstroms)
    I     Atom           X                Y                Z
 ----------------------------------------------------------------
    1      C       0.3062350000    -8.5177020000     0.0959660000
    2      C      -0.7544150000    -7.6415750000    -0.0828070000
    3      S       1.8337020000    -7.6386340000     0.3486350000
    4      C      -0.3836750000    -6.2647850000    -0.0174010000
    5      H      -1.7877570000    -7.9660810000    -0.2590080000
    6      C       1.0208850000    -6.0727140000     0.2319130000
    7      C       1.5790970000    -4.7870490000     0.3050440000
    8      C      -1.2680820000    -5.1628010000    -0.1965490000
    9      C      -0.7087960000    -3.8748170000    -0.1276060000
   10      C       0.6967690000    -3.6839520000     0.1247920000
   11      O      -2.5723780000    -5.4997720000    -0.3978670000
   12      O       2.8895320000    -4.4590550000     0.5061030000
   13      C       3.7184200000    -5.3290630000     1.2673350000
   14      H       4.6352040000    -4.7556940000     1.5028040000
   15      H       4.0107900000    -6.2380950000     0.6974710000
   16      H       3.2265060000    -5.6372620000     2.2151940000
   17      C      -3.4674150000    -4.5722610000    -0.9992380000
   18      H      -4.3886480000    -5.1397430000    -1.2306490000
   19      H      -3.0523230000    -4.1531310000    -1.9409050000
   20      H      -3.7308190000    -3.7395310000    -0.3115430000
   21      C       1.0643660000    -2.3066540000     0.1873230000
   22      S      -1.5211540000    -2.3065010000    -0.2571280000
   23      C       0.0000000000    -1.4351850000     0.0000000000
   24      H       2.0959390000    -1.9781380000     0.3659030000
   25      C       0.0000000000     0.0000000000     0.0000000000
   26      S       0.0004740000     0.9047640000     1.5075410000
   27      C      -0.0002950000     2.4773050000     0.7188730000
   28      C       0.0007520000     0.9044470000    -1.0678720000
   29      C      -0.0015600000     2.2945930000    -0.6864100000
   30      S       0.0036020000     0.6608720000    -2.8055160000
   31      C      -0.0019280000     2.4125460000    -3.0545300000
   32      C      -0.0043810000     3.1208540000    -1.8625510000
   33      F      -0.0091850000     4.4575030000    -1.8190880000
   34      C      -0.0000380000     2.8605700000    -4.4560840000
   35      O       0.0079440000     2.0907240000    -5.4065100000
   36      O      -0.0075010000     4.2110920000    -4.5692250000
   37      C      -0.0022780000     4.7061770000    -5.9162070000
   38      H      -0.0092650000     5.8072070000    -5.8330640000
   39      H      -0.8953810000     4.3528750000    -6.4701680000
   40      H       0.9015210000     4.3633010000    -6.4592930000
   41      H      -0.0017080000     3.4015620000     1.3064860000
   42      H       0.4577360000    -9.1436230000    -0.7913460000
   43      H       0.1580560000    -9.1494410000     0.9797080000
   44      H       0.1802050000    -1.4431750000    -1.0648300000
 ----------------------------------------------------------------

   11   -2755.3487851896      6.83e-07  Convergence criterion met
 Total energy in the final basis set =    -2755.3487851896
        RIMP2         total energy =     -2760.4363613590 a.u.

                    Orbital Energies (a.u.)
 --------------------------------------------------------------

 Alpha MOs
 -- Occupied --
-92.0115 -92.0000 -91.9764 -91.9583 -26.3444 -20.6153 -20.5872 -20.5867
-20.5618 -11.4100 -11.3840 -11.3112 -11.3089 -11.3070 -11.3040 -11.3015
-11.2986 -11.2892 -11.2851 -11.2841 -11.2829 -11.2826 -11.2802 -11.2731
-11.2715 -11.2581 -11.2578 -11.2498 -11.2372  -9.0104  -9.0001  -8.9787
 -8.9609  -6.6912  -6.6906  -6.6901  -6.6812  -6.6804  -6.6793  -6.6598
 -6.6589  -6.6576  -6.6421  -6.6412  -6.6402  -1.6614  -1.4678  -1.4102
 -1.4089  -1.3705  -1.2294  -1.2024  -1.1734  -1.1368  -1.1008  -1.0468
 -1.0452  -1.0235  -1.0035  -0.9969  -0.9629  -0.9583  -0.9485  -0.9414
 -0.8931  -0.8711  -0.8649  -0.8141  -0.7946  -0.7899  -0.7847  -0.7682
 -0.7588  -0.7353  -0.7262  -0.7101  -0.7009  -0.6947  -0.6852  -0.6798
 -0.6744  -0.6649  -0.6554  -0.6485  -0.6346  -0.6306  -0.6201  -0.6149
 -0.6112  -0.5991  -0.5922  -0.5776  -0.5702  -0.5646  -0.5577  -0.5552
 -0.5488  -0.5316  -0.5302  -0.5254  -0.5130  -0.5087  -0.5071  -0.5015
 -0.4857  -0.4805  -0.4767  -0.4745  -0.4719  -0.4671  -0.4604  -0.4460
 -0.4227  -0.4005  -0.3851  -0.3700  -0.3505  -0.3019  -0.2893  -0.2210

          Ground-State Mulliken Net Atomic Charges

     Atom                 Charge (a.u.)
  ----------------------------------------
      1 C                    -0.070368
      2 C                    -0.258381
      3 S                    -0.135089
      4 C                    -0.044248
      5 H                     0.193611
      6 C                    -0.051921
      7 C                     0.226558
      8 C                     0.226485
      9 C                    -0.080182
     10 C                    -0.061689
     11 O                    -0.335248
     12 O                    -0.343387
     13 C                    -0.082638
     14 H                     0.119989
     15 H                     0.092137
     16 H                     0.092581
     17 C                    -0.086629
     18 H                     0.122825
     19 H                     0.093007
     20 H                     0.090173
     21 C                    -0.236810
     22 S                    -0.070860
     23 C                     0.065060
     24 H                     0.205454
     25 C                    -0.086709
     26 S                     0.087866
     27 C                    -0.178826
     28 C                     0.014453
     29 C                    -0.113773
     30 S                     0.000316
     31 C                    -0.159764
     32 C                     0.400019
     33 F                    -0.205878
     34 C                     0.443941
     35 O                    -0.461305
     36 O                    -0.300758
     37 C                    -0.058660
     38 H                     0.121522
     39 H                     0.095243
     40 H                     0.095186
     41 H                     0.217437
     42 H                     0.117595
     43 H                     0.115115
     44 H                     0.186552
  ----------------------------------------
  Sum of atomic charges =     0.000000

                    Cartesian Multipole Moments
 -----------------------------------------------------------------
    Charge (ESU x 10^10)
                -0.0000
    Dipole Moment (Debye)
         X      -0.0366      Y       2.8914      Z       2.3687
       Tot       3.7379
    Quadrupole Moments (Debye-Ang)
        XX    -187.7748     XY       3.6947     YY    -174.0114
        XZ       7.9569     YZ      -7.0545     ZZ    -202.1154

 Total job time:  338.28s(wall), 10611.96s(cpu)
        *  Thank you very much for using Q-Chem.  Have a nice day.  *
