 Q-Chem 5.4, Q-Chem, Inc., Pleasanton, CA (2021)
 Q-Chem 5.4.0 for Intel X86 EM64T Linux

User input:
--------------------------------------------------------------
$molecule
0 1
C	0.194917	-8.517702	-0.254945
C	-0.335839	-7.641575	0.680596
S	0.954772	-7.638634	-1.603876
C	-0.147576	-6.264785	0.354585
H	-0.854836	-7.966081	1.591356
C	0.567090	-6.072714	-0.879999
C	0.826731	-4.787049	-1.379534
C	-0.618405	-5.162801	1.124384
C	-0.362333	-3.874817	0.622407
C	0.355575	-3.683952	-0.612067
O	-1.253677	-5.499772	2.281166
O	1.463859	-4.459055	-2.542174
C	2.462679	-5.329063	-3.060718
H	2.997507	-4.755694	-3.841678
H	2.027179	-6.238095	-3.530361
H	3.185132	-5.637262	-2.274283
C	-2.124902	-4.572261	2.916545
H	-2.657438	-5.139743	3.703073
H	-2.867810	-4.153131	2.204417
H	-1.568770	-3.739531	3.399269
C	0.540061	-2.306654	-0.936109
S	-0.761887	-2.306501	1.341474
C	0.000000	-1.435185	0.000000
H	1.060690	-1.978138	-1.844392
C	0.000000	0.000000	0.000000
S	0.693394	0.581209	1.507541
C	1.897536	1.592607	0.718873
C	0.693330	0.580791	-1.067872
C	1.756758	1.476132	-0.686410
S	0.508573	0.422041	-2.805516
C	1.846879	1.552232	-3.054530
C	2.387897	2.009402	-1.862551
F	3.408741	2.872264	-1.819088
C	2.191300	1.838768	-4.456084
O	1.606694	1.337806	-5.406510
O	3.221062	2.712584	-4.569225
C	3.603677	3.026817	-5.916207
H	4.442623	3.739898	-5.833064
H	2.758956	3.483875	-6.470168
H	3.921969	2.114070	-6.459293
H	2.604650	2.187790	1.306486
H	-0.587067	-9.143623	-0.700788
H	0.974683	-9.149441	0.186556
H	-0.938979	-1.443175	-0.533530
$end

$rem
JOBTYPE		SP
EXCHANGE	HF
CORRELATION	pRIMP2
BASIS		cc-pvtz
METHOD		rimp2
AUX_BASIS	rimp2-cc-pvtz
SOLVENT_METHOD	PCM
PURECART	11111
SYMMETRY	false
MEM_TOTAL	110000
SCF_CONVERGENCE = 6
THRESH=10
GUI = 2
$end

$solvent
dielectric 4.90
$end
--------------------------------------------------------------

             Standard Nuclear Orientation (Angstroms)
    I     Atom           X                Y                Z
 ----------------------------------------------------------------
    1      C       0.1949170000    -8.5177020000    -0.2549450000
    2      C      -0.3358390000    -7.6415750000     0.6805960000
    3      S       0.9547720000    -7.6386340000    -1.6038760000
    4      C      -0.1475760000    -6.2647850000     0.3545850000
    5      H      -0.8548360000    -7.9660810000     1.5913560000
    6      C       0.5670900000    -6.0727140000    -0.8799990000
    7      C       0.8267310000    -4.7870490000    -1.3795340000
    8      C      -0.6184050000    -5.1628010000     1.1243840000
    9      C      -0.3623330000    -3.8748170000     0.6224070000
   10      C       0.3555750000    -3.6839520000    -0.6120670000
   11      O      -1.2536770000    -5.4997720000     2.2811660000
   12      O       1.4638590000    -4.4590550000    -2.5421740000
   13      C       2.4626790000    -5.3290630000    -3.0607180000
   14      H       2.9975070000    -4.7556940000    -3.8416780000
   15      H       2.0271790000    -6.2380950000    -3.5303610000
   16      H       3.1851320000    -5.6372620000    -2.2742830000
   17      C      -2.1249020000    -4.5722610000     2.9165450000
   18      H      -2.6574380000    -5.1397430000     3.7030730000
   19      H      -2.8678100000    -4.1531310000     2.2044170000
   20      H      -1.5687700000    -3.7395310000     3.3992690000
   21      C       0.5400610000    -2.3066540000    -0.9361090000
   22      S      -0.7618870000    -2.3065010000     1.3414740000
   23      C       0.0000000000    -1.4351850000     0.0000000000
   24      H       1.0606900000    -1.9781380000    -1.8443920000
   25      C       0.0000000000     0.0000000000     0.0000000000
   26      S       0.6933940000     0.5812090000     1.5075410000
   27      C       1.8975360000     1.5926070000     0.7188730000
   28      C       0.6933300000     0.5807910000    -1.0678720000
   29      C       1.7567580000     1.4761320000    -0.6864100000
   30      S       0.5085730000     0.4220410000    -2.8055160000
   31      C       1.8468790000     1.5522320000    -3.0545300000
   32      C       2.3878970000     2.0094020000    -1.8625510000
   33      F       3.4087410000     2.8722640000    -1.8190880000
   34      C       2.1913000000     1.8387680000    -4.4560840000
   35      O       1.6066940000     1.3378060000    -5.4065100000
   36      O       3.2210620000     2.7125840000    -4.5692250000
   37      C       3.6036770000     3.0268170000    -5.9162070000
   38      H       4.4426230000     3.7398980000    -5.8330640000
   39      H       2.7589560000     3.4838750000    -6.4701680000
   40      H       3.9219690000     2.1140700000    -6.4592930000
   41      H       2.6046500000     2.1877900000     1.3064860000
   42      H      -0.5870670000    -9.1436230000    -0.7007880000
   43      H       0.9746830000    -9.1494410000     0.1865560000
   44      H      -0.9389790000    -1.4431750000    -0.5335300000
 ----------------------------------------------------------------

   11   -2755.2909063141      7.47e-07  Convergence criterion met
 Total energy in the final basis set =    -2755.2909063141
        RIMP2         total energy =     -2760.3942428337 a.u.

                    Orbital Energies (a.u.)
 --------------------------------------------------------------

 Alpha MOs
 -- Occupied --
-92.0099 -92.0070 -91.9772 -91.9558 -26.3463 -20.6162 -20.5862 -20.5854
-20.5627 -11.4113 -11.3867 -11.3241 -11.3131 -11.3081 -11.3045 -11.2998
-11.2899 -11.2885 -11.2838 -11.2832 -11.2823 -11.2819 -11.2750 -11.2714
-11.2692 -11.2563 -11.2529 -11.2473 -11.2316  -9.0096  -9.0070  -8.9793
 -8.9584  -6.6903  -6.6893  -6.6890  -6.6880  -6.6872  -6.6862  -6.6605
 -6.6596  -6.6584  -6.6396  -6.6387  -6.6377  -1.6633  -1.4688  -1.4090
 -1.4077  -1.3715  -1.2372  -1.2010  -1.1715  -1.1401  -1.0991  -1.0493
 -1.0443  -1.0265  -1.0016  -0.9958  -0.9646  -0.9595  -0.9477  -0.9415
 -0.8925  -0.8723  -0.8612  -0.8127  -0.8000  -0.7911  -0.7819  -0.7652
 -0.7590  -0.7360  -0.7280  -0.7125  -0.6992  -0.6933  -0.6862  -0.6808
 -0.6753  -0.6640  -0.6553  -0.6476  -0.6381  -0.6304  -0.6178  -0.6143
 -0.6117  -0.6017  -0.5923  -0.5784  -0.5717  -0.5663  -0.5573  -0.5561
 -0.5384  -0.5325  -0.5288  -0.5247  -0.5116  -0.5104  -0.5065  -0.5001
 -0.4867  -0.4813  -0.4774  -0.4746  -0.4690  -0.4637  -0.4568  -0.4445
 -0.4275  -0.3946  -0.3819  -0.3678  -0.3514  -0.3055  -0.2869  -0.2139

          Ground-State Mulliken Net Atomic Charges

     Atom                 Charge (a.u.)
  ----------------------------------------
      1 C                    -0.069124
      2 C                    -0.275937
      3 S                    -0.141418
      4 C                    -0.042767
      5 H                     0.191301
      6 C                    -0.054899
      7 C                     0.227879
      8 C                     0.226638
      9 C                    -0.070212
     10 C                    -0.054325
     11 O                    -0.335339
     12 O                    -0.343824
     13 C                    -0.082939
     14 H                     0.120037
     15 H                     0.092474
     16 H                     0.092427
     17 C                    -0.087258
     18 H                     0.123778
     19 H                     0.092090
     20 H                     0.089230
     21 C                    -0.283423
     22 S                    -0.105183
     23 C                     0.084560
     24 H                     0.210280
     25 C                    -0.135601
     26 S                     0.104094
     27 C                    -0.156740
     28 C                     0.003479
     29 C                    -0.092185
     30 S                     0.041269
     31 C                    -0.155500
     32 C                     0.400068
     33 F                    -0.204694
     34 C                     0.447360
     35 O                    -0.461591
     36 O                    -0.301054
     37 C                    -0.058206
     38 H                     0.121726
     39 H                     0.095407
     40 H                     0.095321
     41 H                     0.218096
     42 H                     0.115215
     43 H                     0.112814
     44 H                     0.206676
  ----------------------------------------
  Sum of atomic charges =     0.000000

                    Cartesian Multipole Moments
 -----------------------------------------------------------------
    Charge (ESU x 10^10)
                 0.0000
    Dipole Moment (Debye)
         X       2.2665      Y       3.4303      Z       2.3063
       Tot       4.7141
    Quadrupole Moments (Debye-Ang)
        XX    -181.2237     XY      10.4335     YY    -192.0162
        XZ     -14.8354     YZ      -7.9758     ZZ    -197.1961

 Total job time:  324.12s(wall), 10579.99s(cpu)
        *  Thank you very much for using Q-Chem.  Have a nice day.  *
