 Q-Chem 5.4, Q-Chem, Inc., Pleasanton, CA (2021)
 Q-Chem 5.4.0 for Intel X86 EM64T Linux

User input:
--------------------------------------------------------------
$molecule
0 1
C	-0.320589	-8.517702	0.014560
C	0.737240	-7.641575	-0.180211
S	-1.842356	-7.638634	0.299553
C	0.366488	-6.264785	-0.114873
H	1.768528	-7.966081	-0.368061
C	-1.038637	-6.072714	0.131236
C	-1.588197	-4.787049	0.253435
C	1.258831	-5.162801	-0.249014
C	0.709695	-3.874817	-0.122513
C	-0.697430	-3.683952	0.121043
O	2.553323	-5.499772	-0.505933
O	-2.888369	-4.459055	0.512697
C	-3.927625	-5.329063	0.080869
H	-4.869656	-4.755694	0.173159
H	-4.007459	-6.238095	0.716363
H	-3.789565	-5.637262	-0.978072
C	3.600064	-4.572261	-0.246949
H	4.544887	-5.139743	-0.344574
H	3.532074	-4.153131	0.779898
H	3.612378	-3.739531	-0.983261
C	-1.064246	-2.306654	0.188009
S	1.517360	-2.306501	-0.278644
C	0.000000	-1.435185	0.000000
H	-2.094685	-1.978138	0.373017
C	0.000000	0.000000	0.000000
S	0.000474	0.904764	1.507541
C	-0.000295	2.477305	0.718873
C	0.000752	0.904447	-1.067872
C	-0.001560	2.294593	-0.686410
S	0.003602	0.660872	-2.805516
C	-0.001928	2.412546	-3.054530
C	-0.004381	3.120854	-1.862551
F	-0.009185	4.457503	-1.819088
C	-0.000038	2.860570	-4.456084
O	0.007944	2.090724	-5.406510
O	-0.007501	4.211092	-4.569225
C	-0.002278	4.706177	-5.916207
H	-0.009265	5.807207	-5.833064
H	-0.895381	4.352875	-6.470168
H	0.901521	4.363301	-6.459293
H	-0.001708	3.401562	1.306486
H	-0.159475	-9.143623	0.900177
H	-0.483604	-9.149441	-0.866566
H	0.194856	-1.443175	1.062246
$end

$rem
JOBTYPE		SP
EXCHANGE	HF
CORRELATION	pRIMP2
BASIS		cc-pvtz
METHOD		rimp2
AUX_BASIS	rimp2-cc-pvtz
SOLVENT_METHOD	PCM
PURECART	11111
SYMMETRY	false
MEM_TOTAL	110000
SCF_CONVERGENCE = 6
THRESH=10
GUI = 2
$end

$solvent
dielectric 4.90
$end
--------------------------------------------------------------

             Standard Nuclear Orientation (Angstroms)
    I     Atom           X                Y                Z
 ----------------------------------------------------------------
    1      C      -0.3205890000    -8.5177020000     0.0145600000
    2      C       0.7372400000    -7.6415750000    -0.1802110000
    3      S      -1.8423560000    -7.6386340000     0.2995530000
    4      C       0.3664880000    -6.2647850000    -0.1148730000
    5      H       1.7685280000    -7.9660810000    -0.3680610000
    6      C      -1.0386370000    -6.0727140000     0.1312360000
    7      C      -1.5881970000    -4.7870490000     0.2534350000
    8      C       1.2588310000    -5.1628010000    -0.2490140000
    9      C       0.7096950000    -3.8748170000    -0.1225130000
   10      C      -0.6974300000    -3.6839520000     0.1210430000
   11      O       2.5533230000    -5.4997720000    -0.5059330000
   12      O      -2.8883690000    -4.4590550000     0.5126970000
   13      C      -3.9276250000    -5.3290630000     0.0808690000
   14      H      -4.8696560000    -4.7556940000     0.1731590000
   15      H      -4.0074590000    -6.2380950000     0.7163630000
   16      H      -3.7895650000    -5.6372620000    -0.9780720000
   17      C       3.6000640000    -4.5722610000    -0.2469490000
   18      H       4.5448870000    -5.1397430000    -0.3445740000
   19      H       3.5320740000    -4.1531310000     0.7798980000
   20      H       3.6123780000    -3.7395310000    -0.9832610000
   21      C      -1.0642460000    -2.3066540000     0.1880090000
   22      S       1.5173600000    -2.3065010000    -0.2786440000
   23      C       0.0000000000    -1.4351850000     0.0000000000
   24      H      -2.0946850000    -1.9781380000     0.3730170000
   25      C       0.0000000000     0.0000000000     0.0000000000
   26      S       0.0004740000     0.9047640000     1.5075410000
   27      C      -0.0002950000     2.4773050000     0.7188730000
   28      C       0.0007520000     0.9044470000    -1.0678720000
   29      C      -0.0015600000     2.2945930000    -0.6864100000
   30      S       0.0036020000     0.6608720000    -2.8055160000
   31      C      -0.0019280000     2.4125460000    -3.0545300000
   32      C      -0.0043810000     3.1208540000    -1.8625510000
   33      F      -0.0091850000     4.4575030000    -1.8190880000
   34      C      -0.0000380000     2.8605700000    -4.4560840000
   35      O       0.0079440000     2.0907240000    -5.4065100000
   36      O      -0.0075010000     4.2110920000    -4.5692250000
   37      C      -0.0022780000     4.7061770000    -5.9162070000
   38      H      -0.0092650000     5.8072070000    -5.8330640000
   39      H      -0.8953810000     4.3528750000    -6.4701680000
   40      H       0.9015210000     4.3633010000    -6.4592930000
   41      H      -0.0017080000     3.4015620000     1.3064860000
   42      H      -0.1594750000    -9.1436230000     0.9001770000
   43      H      -0.4836040000    -9.1494410000    -0.8665660000
   44      H       0.1948560000    -1.4431750000     1.0622460000
 ----------------------------------------------------------------

   11   -2755.3453295928      7.48e-07  Convergence criterion met
 Total energy in the final basis set =    -2755.3453295928
        RIMP2         total energy =     -2760.4319810171 a.u.

                    Orbital Energies (a.u.)
 --------------------------------------------------------------

 Alpha MOs
 -- Occupied --
-92.0180 -91.9979 -91.9768 -91.9577 -26.3434 -20.6149 -20.5871 -20.5863
-20.5614 -11.4095 -11.3824 -11.3113 -11.3088 -11.3063 -11.3001 -11.2985
-11.2979 -11.2889 -11.2852 -11.2840 -11.2826 -11.2824 -11.2793 -11.2722
-11.2721 -11.2577 -11.2567 -11.2492 -11.2358  -9.0165  -8.9980  -8.9790
 -8.9603  -6.6972  -6.6967  -6.6961  -6.6790  -6.6783  -6.6772  -6.6601
 -6.6592  -6.6579  -6.6416  -6.6406  -6.6396  -1.6605  -1.4674  -1.4099
 -1.4087  -1.3701  -1.2283  -1.2024  -1.1732  -1.1376  -1.0993  -1.0457
 -1.0440  -1.0247  -1.0033  -0.9965  -0.9629  -0.9583  -0.9480  -0.9406
 -0.8928  -0.8685  -0.8665  -0.8143  -0.7974  -0.7891  -0.7843  -0.7676
 -0.7567  -0.7376  -0.7254  -0.7169  -0.6969  -0.6863  -0.6846  -0.6794
 -0.6740  -0.6603  -0.6558  -0.6483  -0.6341  -0.6297  -0.6195  -0.6149
 -0.6107  -0.5991  -0.5916  -0.5768  -0.5713  -0.5638  -0.5588  -0.5551
 -0.5497  -0.5317  -0.5311  -0.5242  -0.5126  -0.5077  -0.5070  -0.5012
 -0.4855  -0.4816  -0.4765  -0.4739  -0.4704  -0.4673  -0.4608  -0.4462
 -0.4229  -0.3995  -0.3848  -0.3697  -0.3510  -0.3013  -0.2891  -0.2205

          Ground-State Mulliken Net Atomic Charges

     Atom                 Charge (a.u.)
  ----------------------------------------
      1 C                    -0.070104
      2 C                    -0.262312
      3 S                    -0.136603
      4 C                    -0.043369
      5 H                     0.193070
      6 C                    -0.053105
      7 C                     0.227227
      8 C                     0.224162
      9 C                    -0.078712
     10 C                    -0.061616
     11 O                    -0.335192
     12 O                    -0.343496
     13 C                    -0.082650
     14 H                     0.119869
     15 H                     0.091882
     16 H                     0.093185
     17 C                    -0.086132
     18 H                     0.122853
     19 H                     0.091556
     20 H                     0.090907
     21 C                    -0.241769
     22 S                    -0.071702
     23 C                     0.077295
     24 H                     0.204609
     25 C                    -0.112726
     26 S                     0.093413
     27 C                    -0.188547
     28 C                     0.039621
     29 C                    -0.117156
     30 S                     0.009697
     31 C                    -0.158155
     32 C                     0.401629
     33 F                    -0.207275
     34 C                     0.444104
     35 O                    -0.460487
     36 O                    -0.300561
     37 C                    -0.058646
     38 H                     0.121344
     39 H                     0.095179
     40 H                     0.095184
     41 H                     0.219162
     42 H                     0.116813
     43 H                     0.114732
     44 H                     0.182818
  ----------------------------------------
  Sum of atomic charges =     0.000000

                    Cartesian Multipole Moments
 -----------------------------------------------------------------
    Charge (ESU x 10^10)
                -0.0000
    Dipole Moment (Debye)
         X       0.1931      Y       3.2109      Z       3.4860
       Tot       4.7434
    Quadrupole Moments (Debye-Ang)
        XX    -183.9667     XY      -3.6248     YY    -176.3724
        XZ       2.9129     YZ      -6.7108     ZZ    -205.6971

 Total job time:  342.33s(wall), 10690.19s(cpu)
        *  Thank you very much for using Q-Chem.  Have a nice day.  *
