 Q-Chem 5.4, Q-Chem, Inc., Pleasanton, CA (2021)
 Q-Chem 5.4.0 for Intel X86 EM64T Linux

User input:
--------------------------------------------------------------
$molecule
0 1
C	0.318247	-8.517702	0.041330
C	-0.757333	-7.641575	0.049453
S	1.866383	-7.638634	0.024919
C	-0.380867	-6.264785	0.049488
H	-1.805573	-7.966081	0.055368
C	1.045647	-6.072714	0.051115
C	1.608077	-4.787049	0.026203
C	-1.282948	-5.162801	0.026637
C	-0.720187	-3.874817	-0.002586
C	0.707853	-3.683952	0.001903
O	-2.602386	-5.499772	0.054867
O	2.933517	-4.459055	-0.003348
C	3.881999	-5.329063	0.602384
H	4.825744	-4.755694	0.675079
H	4.070972	-6.238095	-0.009592
H	3.562152	-5.637262	1.621263
C	-3.588253	-4.572261	-0.381947
H	-4.535674	-5.139743	-0.449872
H	-3.342986	-4.153131	-1.381388
H	-3.728239	-3.739531	0.341040
C	1.080725	-2.306654	-0.000348
S	-1.542694	-2.306501	0.010924
C	-0.000000	-1.435185	-0.000000
H	2.127635	-1.978138	-0.003612
C	0.000000	0.000000	0.000000
S	0.581934	0.692785	1.507541
C	1.592155	1.897915	0.718873
C	0.581944	0.692363	-1.067872
C	1.473741	1.758764	-0.686410
S	0.427560	0.503942	-2.805516
C	1.549278	1.849357	-3.054530
C	2.002690	2.393529	-1.862551
F	2.858191	3.420549	-1.819088
C	1.838710	2.191348	-4.456084
O	1.349977	1.596481	-5.406510
O	2.701091	3.230705	-4.569225
C	3.023327	3.606605	-5.916207
H	3.725703	4.454534	-5.833064
H	2.112072	3.910035	-6.470168
H	3.495281	2.762996	-6.459293
H	2.185174	2.606846	1.306486
H	0.313367	-9.143623	-0.858809
H	0.325780	-9.149441	0.937378
H	-0.007439	-1.443175	-1.079945
$end

$rem
JOBTYPE		SP
EXCHANGE	HF
CORRELATION	pRIMP2
BASIS		cc-pvtz
METHOD		rimp2
AUX_BASIS	rimp2-cc-pvtz
SOLVENT_METHOD	PCM
PURECART	11111
SYMMETRY	false
MEM_TOTAL	110000
SCF_CONVERGENCE = 6
THRESH=10
GUI = 2
$end

$solvent
dielectric 4.90
$end
--------------------------------------------------------------

             Standard Nuclear Orientation (Angstroms)
    I     Atom           X                Y                Z
 ----------------------------------------------------------------
    1      C       0.3182470000    -8.5177020000     0.0413300000
    2      C      -0.7573330000    -7.6415750000     0.0494530000
    3      S       1.8663830000    -7.6386340000     0.0249190000
    4      C      -0.3808670000    -6.2647850000     0.0494880000
    5      H      -1.8055730000    -7.9660810000     0.0553680000
    6      C       1.0456470000    -6.0727140000     0.0511150000
    7      C       1.6080770000    -4.7870490000     0.0262030000
    8      C      -1.2829480000    -5.1628010000     0.0266370000
    9      C      -0.7201870000    -3.8748170000    -0.0025860000
   10      C       0.7078530000    -3.6839520000     0.0019030000
   11      O      -2.6023860000    -5.4997720000     0.0548670000
   12      O       2.9335170000    -4.4590550000    -0.0033480000
   13      C       3.8819990000    -5.3290630000     0.6023840000
   14      H       4.8257440000    -4.7556940000     0.6750790000
   15      H       4.0709720000    -6.2380950000    -0.0095920000
   16      H       3.5621520000    -5.6372620000     1.6212630000
   17      C      -3.5882530000    -4.5722610000    -0.3819470000
   18      H      -4.5356740000    -5.1397430000    -0.4498720000
   19      H      -3.3429860000    -4.1531310000    -1.3813880000
   20      H      -3.7282390000    -3.7395310000     0.3410400000
   21      C       1.0807250000    -2.3066540000    -0.0003480000
   22      S      -1.5426940000    -2.3065010000     0.0109240000
   23      C       0.0000000000    -1.4351850000     0.0000000000
   24      H       2.1276350000    -1.9781380000    -0.0036120000
   25      C       0.0000000000     0.0000000000     0.0000000000
   26      S       0.5819340000     0.6927850000     1.5075410000
   27      C       1.5921550000     1.8979150000     0.7188730000
   28      C       0.5819440000     0.6923630000    -1.0678720000
   29      C       1.4737410000     1.7587640000    -0.6864100000
   30      S       0.4275600000     0.5039420000    -2.8055160000
   31      C       1.5492780000     1.8493570000    -3.0545300000
   32      C       2.0026900000     2.3935290000    -1.8625510000
   33      F       2.8581910000     3.4205490000    -1.8190880000
   34      C       1.8387100000     2.1913480000    -4.4560840000
   35      O       1.3499770000     1.5964810000    -5.4065100000
   36      O       2.7010910000     3.2307050000    -4.5692250000
   37      C       3.0233270000     3.6066050000    -5.9162070000
   38      H       3.7257030000     4.4545340000    -5.8330640000
   39      H       2.1120720000     3.9100350000    -6.4701680000
   40      H       3.4952810000     2.7629960000    -6.4592930000
   41      H       2.1851740000     2.6068460000     1.3064860000
   42      H       0.3133670000    -9.1436230000    -0.8588090000
   43      H       0.3257800000    -9.1494410000     0.9373780000
   44      H      -0.0074390000    -1.4431750000    -1.0799450000
 ----------------------------------------------------------------

   11   -2755.3196228526      6.68e-07  Convergence criterion met
 Total energy in the final basis set =    -2755.3196228526
        RIMP2         total energy =     -2760.4140029525 a.u.

                    Orbital Energies (a.u.)
 --------------------------------------------------------------

 Alpha MOs
 -- Occupied --
-92.0107 -92.0061 -91.9704 -91.9574 -26.3463 -20.6160 -20.5866 -20.5849
-20.5625 -11.4110 -11.3868 -11.3232 -11.3127 -11.3081 -11.3039 -11.2997
-11.2897 -11.2873 -11.2871 -11.2828 -11.2826 -11.2801 -11.2755 -11.2718
-11.2702 -11.2568 -11.2561 -11.2487 -11.2347  -9.0100  -9.0060  -8.9728
 -8.9600  -6.6907  -6.6899  -6.6896  -6.6870  -6.6863  -6.6852  -6.6539
 -6.6531  -6.6518  -6.6412  -6.6403  -6.6393  -1.6633  -1.4685  -1.4090
 -1.4077  -1.3712  -1.2348  -1.2005  -1.1722  -1.1392  -1.0998  -1.0489
 -1.0439  -1.0255  -1.0013  -0.9952  -0.9642  -0.9579  -0.9482  -0.9417
 -0.8913  -0.8722  -0.8620  -0.8157  -0.7963  -0.7900  -0.7827  -0.7668
 -0.7598  -0.7341  -0.7279  -0.7122  -0.7011  -0.6936  -0.6860  -0.6790
 -0.6751  -0.6660  -0.6544  -0.6476  -0.6356  -0.6290  -0.6191  -0.6145
 -0.6104  -0.6007  -0.5930  -0.5748  -0.5724  -0.5647  -0.5561  -0.5549
 -0.5492  -0.5321  -0.5260  -0.5223  -0.5123  -0.5101  -0.5061  -0.5001
 -0.4851  -0.4829  -0.4759  -0.4747  -0.4688  -0.4675  -0.4578  -0.4445
 -0.4189  -0.3998  -0.3828  -0.3688  -0.3511  -0.3082  -0.2873  -0.2190

          Ground-State Mulliken Net Atomic Charges

     Atom                 Charge (a.u.)
  ----------------------------------------
      1 C                    -0.069840
      2 C                    -0.265490
      3 S                    -0.137073
      4 C                    -0.042536
      5 H                     0.192842
      6 C                    -0.052464
      7 C                     0.223935
      8 C                     0.222622
      9 C                    -0.077415
     10 C                    -0.045768
     11 O                    -0.335963
     12 O                    -0.343638
     13 C                    -0.082521
     14 H                     0.119483
     15 H                     0.092036
     16 H                     0.092539
     17 C                    -0.086072
     18 H                     0.122277
     19 H                     0.091719
     20 H                     0.090134
     21 C                    -0.259475
     22 S                    -0.088887
     23 C                     0.049712
     24 H                     0.207396
     25 C                    -0.097923
     26 S                     0.090582
     27 C                    -0.155547
     28 C                    -0.003160
     29 C                    -0.087668
     30 S                     0.025884
     31 C                    -0.156758
     32 C                     0.396555
     33 F                    -0.204088
     34 C                     0.447133
     35 O                    -0.461280
     36 O                    -0.301215
     37 C                    -0.058262
     38 H                     0.121602
     39 H                     0.095382
     40 H                     0.095390
     41 H                     0.218844
     42 H                     0.116650
     43 H                     0.114135
     44 H                     0.186187
  ----------------------------------------
  Sum of atomic charges =     0.000000

                    Cartesian Multipole Moments
 -----------------------------------------------------------------
    Charge (ESU x 10^10)
                 0.0000
    Dipole Moment (Debye)
         X       2.3022      Y       3.3845      Z       2.1281
       Tot       4.6134
    Quadrupole Moments (Debye-Ang)
        XX    -178.7555     XY      11.7771     YY    -183.9715
        XZ       0.8647     YZ      -5.9795     ZZ    -203.3967

 Total job time:  343.78s(wall), 10568.99s(cpu)
        *  Thank you very much for using Q-Chem.  Have a nice day.  *
