 Q-Chem 5.4, Q-Chem, Inc., Pleasanton, CA (2021)
 Q-Chem 5.4.0 for Intel X86 EM64T Linux

User input:
--------------------------------------------------------------
$molecule
0 1
C	1.438381	-8.395476	0.318247
C	1.278244	-7.534070	-0.757333
S	1.301894	-7.526914	1.866383
C	1.039133	-6.178202	-0.380867
H	1.328769	-7.854673	-1.805573
C	1.004177	-5.989332	1.045647
C	0.805458	-4.718873	1.608077
C	0.870278	-5.088992	-1.282948
C	0.675402	-3.815501	-0.720187
C	0.637837	-3.628315	0.707853
O	0.900992	-5.425746	-2.602386
O	0.777604	-4.390731	2.933517
C	0.332149	-5.352705	3.881999
H	0.160995	-4.800670	4.825744
H	1.092680	-6.141658	4.070972
H	-0.617733	-5.833149	3.562152
C	1.170109	-4.436474	-3.588253
H	1.335544	-4.983539	-4.535674
H	2.081585	-3.850160	-3.342986
H	0.313504	-3.741940	-3.728239
C	0.400889	-2.271550	1.080725
S	0.389762	-2.273357	-1.542694
C	0.249217	-1.413382	0.000000
H	0.347057	-1.947458	2.127635
C	0.000000	0.000000	0.000000
S	0.693394	0.581209	1.507541
C	1.897536	1.592607	0.718873
C	0.693330	0.580791	-1.067872
C	1.756758	1.476132	-0.686410
S	0.508573	0.422041	-2.805516
C	1.846879	1.552232	-3.054530
C	2.387897	2.009402	-1.862551
F	3.408741	2.872264	-1.819088
C	2.191300	1.838768	-4.456084
O	1.606694	1.337806	-5.406510
O	3.221062	2.712584	-4.569225
C	3.603677	3.026817	-5.916207
H	4.442623	3.739898	-5.833064
H	2.758956	3.483875	-6.470168
H	3.921969	2.114070	-6.459293
H	2.604650	2.187790	1.306486
H	2.433535	-8.855580	0.313367
H	0.665647	-9.173214	0.325780
H	1.314143	-1.233719	-0.007439
$end

$rem
JOBTYPE		SP
EXCHANGE	HF
CORRELATION	pRIMP2
BASIS		cc-pvtz
METHOD		rimp2
AUX_BASIS	rimp2-cc-pvtz
SOLVENT_METHOD	PCM
PURECART	11111
SYMMETRY	false
MEM_TOTAL	110000
SCF_CONVERGENCE = 6
THRESH=10
GUI = 2
$end

$solvent
dielectric 4.90
$end
--------------------------------------------------------------

             Standard Nuclear Orientation (Angstroms)
    I     Atom           X                Y                Z
 ----------------------------------------------------------------
    1      C       1.4383810000    -8.3954760000     0.3182470000
    2      C       1.2782440000    -7.5340700000    -0.7573330000
    3      S       1.3018940000    -7.5269140000     1.8663830000
    4      C       1.0391330000    -6.1782020000    -0.3808670000
    5      H       1.3287690000    -7.8546730000    -1.8055730000
    6      C       1.0041770000    -5.9893320000     1.0456470000
    7      C       0.8054580000    -4.7188730000     1.6080770000
    8      C       0.8702780000    -5.0889920000    -1.2829480000
    9      C       0.6754020000    -3.8155010000    -0.7201870000
   10      C       0.6378370000    -3.6283150000     0.7078530000
   11      O       0.9009920000    -5.4257460000    -2.6023860000
   12      O       0.7776040000    -4.3907310000     2.9335170000
   13      C       0.3321490000    -5.3527050000     3.8819990000
   14      H       0.1609950000    -4.8006700000     4.8257440000
   15      H       1.0926800000    -6.1416580000     4.0709720000
   16      H      -0.6177330000    -5.8331490000     3.5621520000
   17      C       1.1701090000    -4.4364740000    -3.5882530000
   18      H       1.3355440000    -4.9835390000    -4.5356740000
   19      H       2.0815850000    -3.8501600000    -3.3429860000
   20      H       0.3135040000    -3.7419400000    -3.7282390000
   21      C       0.4008890000    -2.2715500000     1.0807250000
   22      S       0.3897620000    -2.2733570000    -1.5426940000
   23      C       0.2492170000    -1.4133820000     0.0000000000
   24      H       0.3470570000    -1.9474580000     2.1276350000
   25      C       0.0000000000     0.0000000000     0.0000000000
   26      S       0.6933940000     0.5812090000     1.5075410000
   27      C       1.8975360000     1.5926070000     0.7188730000
   28      C       0.6933300000     0.5807910000    -1.0678720000
   29      C       1.7567580000     1.4761320000    -0.6864100000
   30      S       0.5085730000     0.4220410000    -2.8055160000
   31      C       1.8468790000     1.5522320000    -3.0545300000
   32      C       2.3878970000     2.0094020000    -1.8625510000
   33      F       3.4087410000     2.8722640000    -1.8190880000
   34      C       2.1913000000     1.8387680000    -4.4560840000
   35      O       1.6066940000     1.3378060000    -5.4065100000
   36      O       3.2210620000     2.7125840000    -4.5692250000
   37      C       3.6036770000     3.0268170000    -5.9162070000
   38      H       4.4426230000     3.7398980000    -5.8330640000
   39      H       2.7589560000     3.4838750000    -6.4701680000
   40      H       3.9219690000     2.1140700000    -6.4592930000
   41      H       2.6046500000     2.1877900000     1.3064860000
   42      H       2.4335350000    -8.8555800000     0.3133670000
   43      H       0.6656470000    -9.1732140000     0.3257800000
   44      H       1.3141430000    -1.2337190000    -0.0074390000
 ----------------------------------------------------------------

   11   -2755.2625580878      7.04e-07  Convergence criterion met
 Total energy in the final basis set =    -2755.2625580878
        RIMP2         total energy =     -2760.3756477190 a.u.

                    Orbital Energies (a.u.)
 --------------------------------------------------------------

 Alpha MOs
 -- Occupied --
-92.0113 -92.0048 -91.9711 -91.9570 -26.3453 -20.6162 -20.5867 -20.5852
-20.5627 -11.4112 -11.3848 -11.3290 -11.3103 -11.3079 -11.3051 -11.2996
-11.2902 -11.2898 -11.2828 -11.2828 -11.2826 -11.2794 -11.2788 -11.2708
-11.2682 -11.2568 -11.2543 -11.2486 -11.2347  -9.0114  -9.0050  -8.9742
 -8.9597  -6.6921  -6.6912  -6.6910  -6.6859  -6.6851  -6.6841  -6.6551
 -6.6543  -6.6529  -6.6409  -6.6400  -6.6390  -1.6624  -1.4687  -1.4091
 -1.4080  -1.3714  -1.2466  -1.1992  -1.1733  -1.1423  -1.0988  -1.0510
 -1.0438  -1.0298  -1.0013  -0.9941  -0.9679  -0.9551  -0.9497  -0.9422
 -0.8922  -0.8734  -0.8564  -0.8212  -0.7948  -0.7870  -0.7806  -0.7675
 -0.7576  -0.7376  -0.7274  -0.7138  -0.6991  -0.6945  -0.6862  -0.6823
 -0.6752  -0.6681  -0.6545  -0.6476  -0.6369  -0.6313  -0.6190  -0.6147
 -0.6098  -0.6034  -0.5925  -0.5804  -0.5698  -0.5680  -0.5586  -0.5547
 -0.5436  -0.5337  -0.5305  -0.5243  -0.5167  -0.5111  -0.5069  -0.4990
 -0.4839  -0.4829  -0.4784  -0.4736  -0.4690  -0.4606  -0.4539  -0.4451
 -0.4279  -0.3939  -0.3764  -0.3694  -0.3519  -0.3068  -0.2844  -0.2133

          Ground-State Mulliken Net Atomic Charges

     Atom                 Charge (a.u.)
  ----------------------------------------
      1 C                    -0.069932
      2 C                    -0.264947
      3 S                    -0.138945
      4 C                    -0.044613
      5 H                     0.192759
      6 C                    -0.051336
      7 C                     0.220579
      8 C                     0.222445
      9 C                    -0.064792
     10 C                    -0.041546
     11 O                    -0.335433
     12 O                    -0.344284
     13 C                    -0.082918
     14 H                     0.119438
     15 H                     0.091968
     16 H                     0.092988
     17 C                    -0.087354
     18 H                     0.123389
     19 H                     0.091187
     20 H                     0.091134
     21 C                    -0.284189
     22 S                    -0.105830
     23 C                     0.095494
     24 H                     0.196654
     25 C                    -0.140321
     26 S                     0.089486
     27 C                    -0.146559
     28 C                     0.048749
     29 C                    -0.115374
     30 S                     0.051776
     31 C                    -0.154964
     32 C                     0.395348
     33 F                    -0.206112
     34 C                     0.448820
     35 O                    -0.460945
     36 O                    -0.300720
     37 C                    -0.058327
     38 H                     0.121683
     39 H                     0.095439
     40 H                     0.095242
     41 H                     0.220648
     42 H                     0.116512
     43 H                     0.114198
     44 H                     0.163509
  ----------------------------------------
  Sum of atomic charges =     0.000000

                    Cartesian Multipole Moments
 -----------------------------------------------------------------
    Charge (ESU x 10^10)
                -0.0000
    Dipole Moment (Debye)
         X       3.3575      Y       2.9790      Z       2.2833
       Tot       5.0359
    Quadrupole Moments (Debye-Ang)
        XX    -189.8142     XY       8.0410     YY    -187.5979
        XZ     -12.1910     YZ      -1.6706     ZZ    -187.5991

 Total job time:  334.71s(wall), 10853.04s(cpu)
        *  Thank you very much for using Q-Chem.  Have a nice day.  *
