 Q-Chem 5.4, Q-Chem, Inc., Pleasanton, CA (2021)
 Q-Chem 5.4.0 for Intel X86 EM64T Linux

User input:
--------------------------------------------------------------
$molecule
0 1
C	0.236226	-8.517702	-0.217225
C	-0.448921	-7.641575	0.611939
S	1.218777	-7.638634	-1.413715
C	-0.206907	-6.264785	0.323572
H	-1.118185	-7.966081	1.418739
C	0.711285	-6.072714	-0.768156
C	1.053725	-4.787049	-1.215016
C	-0.804258	-5.162801	0.999917
C	-0.464908	-3.874817	0.550033
C	0.456457	-3.683952	-0.541024
O	-1.630752	-5.499772	2.028811
O	1.883064	-4.459055	-2.249357
C	2.956754	-5.329063	-2.586579
H	3.619069	-4.755694	-3.262802
H	2.609423	-6.238095	-3.124711
H	3.531667	-5.637262	-1.686639
C	-2.599073	-4.572261	2.503251
H	-3.260097	-5.139743	3.185356
H	-3.207034	-4.153131	1.672937
H	-2.135214	-3.739531	3.075213
C	0.694410	-2.306654	-0.828107
S	-0.983256	-2.306501	1.188794
C	-0.000000	-1.435185	-0.000000
H	1.364851	-1.978138	-1.632185
C	0.000000	0.000000	0.000000
S	0.382799	0.819795	1.507541
C	1.046687	2.245325	0.718873
C	0.382918	0.819389	-1.067872
C	0.968323	2.080267	-0.686410
S	0.282561	0.597432	-2.805516
C	1.017839	2.187324	-3.054530
C	1.314960	2.830306	-1.862551
F	1.875498	4.043751	-1.819088
C	1.208895	2.592573	-4.456084
O	0.890778	1.891482	-5.406510
O	1.772886	3.819715	-4.569225
C	1.986852	4.266207	-5.916207
H	2.445834	5.267032	-5.833064
H	1.028114	4.323448	-6.470168
H	2.661066	3.573494	-6.459293
H	1.436015	3.083584	1.306486
H	-0.456457	-9.143623	-0.792084
H	0.927480	-9.149441	0.352973
H	-0.832067	-1.443175	-0.688477
$end

$rem
JOBTYPE		SP
EXCHANGE	HF
CORRELATION	pRIMP2
BASIS		cc-pvtz
METHOD		rimp2
AUX_BASIS	rimp2-cc-pvtz
SOLVENT_METHOD	PCM
PURECART	11111
SYMMETRY	false
MEM_TOTAL	110000
SCF_CONVERGENCE = 6
THRESH=10
GUI = 2
$end

$solvent
dielectric 4.90
$end
--------------------------------------------------------------

             Standard Nuclear Orientation (Angstroms)
    I     Atom           X                Y                Z
 ----------------------------------------------------------------
    1      C       0.2362260000    -8.5177020000    -0.2172250000
    2      C      -0.4489210000    -7.6415750000     0.6119390000
    3      S       1.2187770000    -7.6386340000    -1.4137150000
    4      C      -0.2069070000    -6.2647850000     0.3235720000
    5      H      -1.1181850000    -7.9660810000     1.4187390000
    6      C       0.7112850000    -6.0727140000    -0.7681560000
    7      C       1.0537250000    -4.7870490000    -1.2150160000
    8      C      -0.8042580000    -5.1628010000     0.9999170000
    9      C      -0.4649080000    -3.8748170000     0.5500330000
   10      C       0.4564570000    -3.6839520000    -0.5410240000
   11      O      -1.6307520000    -5.4997720000     2.0288110000
   12      O       1.8830640000    -4.4590550000    -2.2493570000
   13      C       2.9567540000    -5.3290630000    -2.5865790000
   14      H       3.6190690000    -4.7556940000    -3.2628020000
   15      H       2.6094230000    -6.2380950000    -3.1247110000
   16      H       3.5316670000    -5.6372620000    -1.6866390000
   17      C      -2.5990730000    -4.5722610000     2.5032510000
   18      H      -3.2600970000    -5.1397430000     3.1853560000
   19      H      -3.2070340000    -4.1531310000     1.6729370000
   20      H      -2.1352140000    -3.7395310000     3.0752130000
   21      C       0.6944100000    -2.3066540000    -0.8281070000
   22      S      -0.9832560000    -2.3065010000     1.1887940000
   23      C       0.0000000000    -1.4351850000     0.0000000000
   24      H       1.3648510000    -1.9781380000    -1.6321850000
   25      C       0.0000000000     0.0000000000     0.0000000000
   26      S       0.3827990000     0.8197950000     1.5075410000
   27      C       1.0466870000     2.2453250000     0.7188730000
   28      C       0.3829180000     0.8193890000    -1.0678720000
   29      C       0.9683230000     2.0802670000    -0.6864100000
   30      S       0.2825610000     0.5974320000    -2.8055160000
   31      C       1.0178390000     2.1873240000    -3.0545300000
   32      C       1.3149600000     2.8303060000    -1.8625510000
   33      F       1.8754980000     4.0437510000    -1.8190880000
   34      C       1.2088950000     2.5925730000    -4.4560840000
   35      O       0.8907780000     1.8914820000    -5.4065100000
   36      O       1.7728860000     3.8197150000    -4.5692250000
   37      C       1.9868520000     4.2662070000    -5.9162070000
   38      H       2.4458340000     5.2670320000    -5.8330640000
   39      H       1.0281140000     4.3234480000    -6.4701680000
   40      H       2.6610660000     3.5734940000    -6.4592930000
   41      H       1.4360150000     3.0835840000     1.3064860000
   42      H      -0.4564570000    -9.1436230000    -0.7920840000
   43      H       0.9274800000    -9.1494410000     0.3529730000
   44      H      -0.8320670000    -1.4431750000    -0.6884770000
 ----------------------------------------------------------------

   11   -2755.3333150561      7.53e-07  Convergence criterion met
 Total energy in the final basis set =    -2755.3333150561
        RIMP2         total energy =     -2760.4262823023 a.u.

                    Orbital Energies (a.u.)
 --------------------------------------------------------------

 Alpha MOs
 -- Occupied --
-92.0121 -92.0005 -91.9797 -91.9580 -26.3443 -20.6154 -20.5874 -20.5870
-20.5620 -11.4102 -11.3838 -11.3097 -11.3092 -11.3080 -11.3023 -11.3010
-11.2989 -11.2893 -11.2860 -11.2849 -11.2839 -11.2825 -11.2806 -11.2729
-11.2726 -11.2583 -11.2578 -11.2495 -11.2366  -9.0110  -9.0006  -8.9818
 -8.9606  -6.6918  -6.6911  -6.6906  -6.6816  -6.6809  -6.6798  -6.6630
 -6.6621  -6.6608  -6.6418  -6.6409  -6.6399  -1.6613  -1.4679  -1.4108
 -1.4088  -1.3706  -1.2310  -1.2028  -1.1736  -1.1377  -1.1007  -1.0469
 -1.0461  -1.0239  -1.0035  -0.9978  -0.9628  -0.9594  -0.9487  -0.9414
 -0.8940  -0.8711  -0.8642  -0.8105  -0.7999  -0.7903  -0.7840  -0.7676
 -0.7583  -0.7364  -0.7262  -0.7101  -0.6998  -0.6948  -0.6853  -0.6807
 -0.6745  -0.6643  -0.6562  -0.6486  -0.6372  -0.6306  -0.6199  -0.6148
 -0.6122  -0.5994  -0.5931  -0.5777  -0.5713  -0.5658  -0.5586  -0.5552
 -0.5442  -0.5326  -0.5310  -0.5268  -0.5127  -0.5090  -0.5076  -0.5019
 -0.4851  -0.4820  -0.4767  -0.4744  -0.4695  -0.4670  -0.4610  -0.4467
 -0.4285  -0.3968  -0.3850  -0.3701  -0.3510  -0.3010  -0.2889  -0.2184

          Ground-State Mulliken Net Atomic Charges

     Atom                 Charge (a.u.)
  ----------------------------------------
      1 C                    -0.070197
      2 C                    -0.261307
      3 S                    -0.135769
      4 C                    -0.046984
      5 H                     0.193234
      6 C                    -0.053057
      7 C                     0.221391
      8 C                     0.231514
      9 C                    -0.074907
     10 C                    -0.035170
     11 O                    -0.334727
     12 O                    -0.342830
     13 C                    -0.082892
     14 H                     0.120463
     15 H                     0.092216
     16 H                     0.092631
     17 C                    -0.087247
     18 H                     0.124072
     19 H                     0.092779
     20 H                     0.089833
     21 C                    -0.312230
     22 S                    -0.084982
     23 C                     0.101280
     24 H                     0.210567
     25 C                    -0.048069
     26 S                     0.096457
     27 C                    -0.194567
     28 C                    -0.050555
     29 C                    -0.087736
     30 S                     0.013778
     31 C                    -0.156170
     32 C                     0.398829
     33 F                    -0.206198
     34 C                     0.444763
     35 O                    -0.460763
     36 O                    -0.300850
     37 C                    -0.058412
     38 H                     0.121585
     39 H                     0.095298
     40 H                     0.095188
     41 H                     0.216250
     42 H                     0.117226
     43 H                     0.114892
     44 H                     0.201372
  ----------------------------------------
  Sum of atomic charges =     0.000000

                    Cartesian Multipole Moments
 -----------------------------------------------------------------
    Charge (ESU x 10^10)
                -0.0000
    Dipole Moment (Debye)
         X       0.6367      Y       2.5813      Z       2.5819
       Tot       3.7060
    Quadrupole Moments (Debye-Ang)
        XX    -185.3521     XY       8.7014     YY    -177.6178
        XZ     -11.5034     YZ      -9.9880     ZZ    -201.2829

 Total job time:  322.20s(wall), 10562.53s(cpu)
        *  Thank you very much for using Q-Chem.  Have a nice day.  *
