 Q-Chem 5.4, Q-Chem, Inc., Pleasanton, CA (2021)
 Q-Chem 5.4.0 for Intel X86 EM64T Linux

User input:
--------------------------------------------------------------
$molecule
0 1
C	0.123330	-8.517702	0.296276
C	-0.421494	-7.641575	-0.631143
S	0.911611	-7.638634	1.628795
C	-0.233291	-6.264785	-0.305097
H	-0.950737	-7.966081	-1.535988
C	0.478557	-6.072714	0.931114
C	0.781346	-4.787049	1.405737
C	-0.664542	-5.162801	-1.097747
C	-0.357854	-3.874817	-0.624993
C	0.352278	-3.683952	0.613970
O	-1.348709	-5.499772	-2.226300
O	1.469658	-4.459055	2.538827
C	1.419319	-5.329063	3.663102
H	1.828237	-4.755694	4.516756
H	2.043793	-6.238095	3.520769
H	0.377021	-5.637262	3.895546
C	-1.463351	-4.572261	-3.298492
H	-1.878237	-5.139743	-4.152945
H	-0.475176	-4.153131	-3.585804
H	-2.159469	-3.739531	-3.058230
C	0.540664	-2.306654	0.935761
S	-0.780808	-2.306501	-1.330550
C	-0.000000	-1.435185	-0.000000
H	1.066946	-1.978138	1.840780
C	0.000000	0.000000	0.000000
S	0.157577	0.890937	1.507541
C	0.429889	2.439720	0.718873
C	0.157797	0.890576	-1.067872
C	0.396915	2.260004	-0.686410
S	0.118307	0.650207	-2.805516
C	0.417036	2.376229	-3.054530
C	0.537616	3.074202	-1.862551
F	0.764992	4.391378	-1.819088
C	0.496696	2.817118	-4.456084
O	0.370874	2.057582	-5.406510
O	0.723861	4.148418	-4.569225
C	0.814976	4.635075	-5.916207
H	0.999286	5.720591	-5.833064
H	-0.125909	4.442226	-6.470168
H	1.645504	4.140465	-6.459293
H	0.588993	3.350182	1.306486
H	0.900433	-9.143623	-0.158021
H	-0.648903	-9.149441	0.750822
H	0.931540	-1.443175	-0.546415
$end

$rem
JOBTYPE		SP
EXCHANGE	HF
CORRELATION	pRIMP2
BASIS		cc-pvtz
METHOD		rimp2
AUX_BASIS	rimp2-cc-pvtz
SOLVENT_METHOD	PCM
PURECART	11111
SYMMETRY	false
MEM_TOTAL	110000
SCF_CONVERGENCE = 6
THRESH=10
GUI = 2
$end

$solvent
dielectric 4.90
$end
--------------------------------------------------------------

             Standard Nuclear Orientation (Angstroms)
    I     Atom           X                Y                Z
 ----------------------------------------------------------------
    1      C       0.1233300000    -8.5177020000     0.2962760000
    2      C      -0.4214940000    -7.6415750000    -0.6311430000
    3      S       0.9116110000    -7.6386340000     1.6287950000
    4      C      -0.2332910000    -6.2647850000    -0.3050970000
    5      H      -0.9507370000    -7.9660810000    -1.5359880000
    6      C       0.4785570000    -6.0727140000     0.9311140000
    7      C       0.7813460000    -4.7870490000     1.4057370000
    8      C      -0.6645420000    -5.1628010000    -1.0977470000
    9      C      -0.3578540000    -3.8748170000    -0.6249930000
   10      C       0.3522780000    -3.6839520000     0.6139700000
   11      O      -1.3487090000    -5.4997720000    -2.2263000000
   12      O       1.4696580000    -4.4590550000     2.5388270000
   13      C       1.4193190000    -5.3290630000     3.6631020000
   14      H       1.8282370000    -4.7556940000     4.5167560000
   15      H       2.0437930000    -6.2380950000     3.5207690000
   16      H       0.3770210000    -5.6372620000     3.8955460000
   17      C      -1.4633510000    -4.5722610000    -3.2984920000
   18      H      -1.8782370000    -5.1397430000    -4.1529450000
   19      H      -0.4751760000    -4.1531310000    -3.5858040000
   20      H      -2.1594690000    -3.7395310000    -3.0582300000
   21      C       0.5406640000    -2.3066540000     0.9357610000
   22      S      -0.7808080000    -2.3065010000    -1.3305500000
   23      C       0.0000000000    -1.4351850000     0.0000000000
   24      H       1.0669460000    -1.9781380000     1.8407800000
   25      C       0.0000000000     0.0000000000     0.0000000000
   26      S       0.1575770000     0.8909370000     1.5075410000
   27      C       0.4298890000     2.4397200000     0.7188730000
   28      C       0.1577970000     0.8905760000    -1.0678720000
   29      C       0.3969150000     2.2600040000    -0.6864100000
   30      S       0.1183070000     0.6502070000    -2.8055160000
   31      C       0.4170360000     2.3762290000    -3.0545300000
   32      C       0.5376160000     3.0742020000    -1.8625510000
   33      F       0.7649920000     4.3913780000    -1.8190880000
   34      C       0.4966960000     2.8171180000    -4.4560840000
   35      O       0.3708740000     2.0575820000    -5.4065100000
   36      O       0.7238610000     4.1484180000    -4.5692250000
   37      C       0.8149760000     4.6350750000    -5.9162070000
   38      H       0.9992860000     5.7205910000    -5.8330640000
   39      H      -0.1259090000     4.4422260000    -6.4701680000
   40      H       1.6455040000     4.1404650000    -6.4592930000
   41      H       0.5889930000     3.3501820000     1.3064860000
   42      H       0.9004330000    -9.1436230000    -0.1580210000
   43      H      -0.6489030000    -9.1494410000     0.7508220000
   44      H       0.9315400000    -1.4431750000    -0.5464150000
 ----------------------------------------------------------------

   11   -2755.3439765597      7.95e-07  Convergence criterion met
 Total energy in the final basis set =    -2755.3439765597
        RIMP2         total energy =     -2760.4350636620 a.u.

                    Orbital Energies (a.u.)
 --------------------------------------------------------------

 Alpha MOs
 -- Occupied --
-92.0146 -91.9967 -91.9797 -91.9595 -26.3427 -20.6149 -20.5881 -20.5880
-20.5613 -11.4093 -11.3815 -11.3099 -11.3097 -11.3097 -11.3016 -11.2974
-11.2936 -11.2888 -11.2848 -11.2846 -11.2845 -11.2836 -11.2835 -11.2748
-11.2733 -11.2606 -11.2593 -11.2509 -11.2395  -9.0132  -8.9968  -8.9820
 -8.9621  -6.6940  -6.6934  -6.6929  -6.6778  -6.6771  -6.6759  -6.6631
 -6.6622  -6.6610  -6.6433  -6.6424  -6.6414  -1.6598  -1.4673  -1.4114
 -1.4099  -1.3700  -1.2301  -1.2027  -1.1750  -1.1370  -1.1013  -1.0482
 -1.0445  -1.0235  -1.0046  -0.9981  -0.9637  -0.9571  -0.9493  -0.9419
 -0.8945  -0.8704  -0.8647  -0.8154  -0.7922  -0.7902  -0.7852  -0.7696
 -0.7574  -0.7367  -0.7247  -0.7090  -0.6982  -0.6957  -0.6847  -0.6814
 -0.6738  -0.6648  -0.6563  -0.6493  -0.6367  -0.6317  -0.6212  -0.6158
 -0.6112  -0.5994  -0.5935  -0.5762  -0.5712  -0.5655  -0.5597  -0.5565
 -0.5506  -0.5318  -0.5307  -0.5263  -0.5148  -0.5107  -0.5081  -0.5011
 -0.4856  -0.4803  -0.4769  -0.4739  -0.4718  -0.4659  -0.4610  -0.4472
 -0.4316  -0.3967  -0.3848  -0.3715  -0.3500  -0.2992  -0.2884  -0.2190

          Ground-State Mulliken Net Atomic Charges

     Atom                 Charge (a.u.)
  ----------------------------------------
      1 C                    -0.070597
      2 C                    -0.251932
      3 S                    -0.132999
      4 C                    -0.046824
      5 H                     0.194567
      6 C                    -0.051267
      7 C                     0.221787
      8 C                     0.232165
      9 C                    -0.077703
     10 C                    -0.049124
     11 O                    -0.334459
     12 O                    -0.343993
     13 C                    -0.082582
     14 H                     0.120096
     15 H                     0.092134
     16 H                     0.093009
     17 C                    -0.088362
     18 H                     0.124001
     19 H                     0.093891
     20 H                     0.090783
     21 C                    -0.281092
     22 S                    -0.084762
     23 C                     0.086391
     24 H                     0.202545
     25 C                    -0.015401
     26 S                     0.080453
     27 C                    -0.206838
     28 C                    -0.020766
     29 C                    -0.113533
     30 S                    -0.004325
     31 C                    -0.160085
     32 C                     0.400764
     33 F                    -0.207276
     34 C                     0.445068
     35 O                    -0.460571
     36 O                    -0.300598
     37 C                    -0.058737
     38 H                     0.121431
     39 H                     0.095167
     40 H                     0.095018
     41 H                     0.216574
     42 H                     0.118492
     43 H                     0.116109
     44 H                     0.203382
  ----------------------------------------
  Sum of atomic charges =     0.000000

                    Cartesian Multipole Moments
 -----------------------------------------------------------------
    Charge (ESU x 10^10)
                 0.0000
    Dipole Moment (Debye)
         X       0.8342      Y       1.6924      Z       2.5203
       Tot       3.1484
    Quadrupole Moments (Debye-Ang)
        XX    -200.7695     XY       4.6401     YY    -171.2861
        XZ       2.3737     YZ      -3.9240     ZZ    -188.5021

 Total job time:  365.48s(wall), 11278.36s(cpu)
        *  Thank you very much for using Q-Chem.  Have a nice day.  *
