 Q-Chem 5.4, Q-Chem, Inc., Pleasanton, CA (2021)
 Q-Chem 5.4.0 for Intel X86 EM64T Linux

User input:
--------------------------------------------------------------
$molecule
0 1
C	0.236226	-8.517702	-0.217225
C	-0.448921	-7.641575	0.611939
S	1.218777	-7.638634	-1.413715
C	-0.206907	-6.264785	0.323572
H	-1.118185	-7.966081	1.418739
C	0.711285	-6.072714	-0.768156
C	1.053725	-4.787049	-1.215016
C	-0.804258	-5.162801	0.999917
C	-0.464908	-3.874817	0.550033
C	0.456457	-3.683952	-0.541024
O	-1.630752	-5.499772	2.028811
O	1.883064	-4.459055	-2.249357
C	2.956754	-5.329063	-2.586579
H	3.619069	-4.755694	-3.262802
H	2.609423	-6.238095	-3.124711
H	3.531667	-5.637262	-1.686639
C	-2.599073	-4.572261	2.503251
H	-3.260097	-5.139743	3.185356
H	-3.207034	-4.153131	1.672937
H	-2.135214	-3.739531	3.075213
C	0.694410	-2.306654	-0.828107
S	-0.983256	-2.306501	1.188794
C	0.000000	-1.435185	0.000000
H	1.364851	-1.978138	-1.632185
C	0.000000	0.000000	0.000000
S	0.000474	0.904764	1.507541
C	-0.000295	2.477305	0.718873
C	0.000752	0.904447	-1.067872
C	-0.001560	2.294593	-0.686410
S	0.003602	0.660872	-2.805516
C	-0.001928	2.412546	-3.054530
C	-0.004381	3.120854	-1.862551
F	-0.009185	4.457503	-1.819088
C	-0.000038	2.860570	-4.456084
O	0.007944	2.090724	-5.406510
O	-0.007501	4.211092	-4.569225
C	-0.002278	4.706177	-5.916207
H	-0.009265	5.807207	-5.833064
H	-0.895381	4.352875	-6.470168
H	0.901521	4.363301	-6.459293
H	-0.001708	3.401562	1.306486
H	-0.456457	-9.143623	-0.792084
H	0.927480	-9.149441	0.352973
H	-0.832067	-1.443175	-0.688477
$end

$rem
JOBTYPE		SP
EXCHANGE	HF
CORRELATION	pRIMP2
BASIS		cc-pvtz
METHOD		rimp2
AUX_BASIS	rimp2-cc-pvtz
SOLVENT_METHOD	PCM
PURECART	11111
SYMMETRY	false
MEM_TOTAL	110000
SCF_CONVERGENCE = 6
THRESH=10
GUI = 2
$end

$solvent
dielectric 4.90
$end
--------------------------------------------------------------

             Standard Nuclear Orientation (Angstroms)
    I     Atom           X                Y                Z
 ----------------------------------------------------------------
    1      C       0.2362260000    -8.5177020000    -0.2172250000
    2      C      -0.4489210000    -7.6415750000     0.6119390000
    3      S       1.2187770000    -7.6386340000    -1.4137150000
    4      C      -0.2069070000    -6.2647850000     0.3235720000
    5      H      -1.1181850000    -7.9660810000     1.4187390000
    6      C       0.7112850000    -6.0727140000    -0.7681560000
    7      C       1.0537250000    -4.7870490000    -1.2150160000
    8      C      -0.8042580000    -5.1628010000     0.9999170000
    9      C      -0.4649080000    -3.8748170000     0.5500330000
   10      C       0.4564570000    -3.6839520000    -0.5410240000
   11      O      -1.6307520000    -5.4997720000     2.0288110000
   12      O       1.8830640000    -4.4590550000    -2.2493570000
   13      C       2.9567540000    -5.3290630000    -2.5865790000
   14      H       3.6190690000    -4.7556940000    -3.2628020000
   15      H       2.6094230000    -6.2380950000    -3.1247110000
   16      H       3.5316670000    -5.6372620000    -1.6866390000
   17      C      -2.5990730000    -4.5722610000     2.5032510000
   18      H      -3.2600970000    -5.1397430000     3.1853560000
   19      H      -3.2070340000    -4.1531310000     1.6729370000
   20      H      -2.1352140000    -3.7395310000     3.0752130000
   21      C       0.6944100000    -2.3066540000    -0.8281070000
   22      S      -0.9832560000    -2.3065010000     1.1887940000
   23      C       0.0000000000    -1.4351850000     0.0000000000
   24      H       1.3648510000    -1.9781380000    -1.6321850000
   25      C       0.0000000000     0.0000000000     0.0000000000
   26      S       0.0004740000     0.9047640000     1.5075410000
   27      C      -0.0002950000     2.4773050000     0.7188730000
   28      C       0.0007520000     0.9044470000    -1.0678720000
   29      C      -0.0015600000     2.2945930000    -0.6864100000
   30      S       0.0036020000     0.6608720000    -2.8055160000
   31      C      -0.0019280000     2.4125460000    -3.0545300000
   32      C      -0.0043810000     3.1208540000    -1.8625510000
   33      F      -0.0091850000     4.4575030000    -1.8190880000
   34      C      -0.0000380000     2.8605700000    -4.4560840000
   35      O       0.0079440000     2.0907240000    -5.4065100000
   36      O      -0.0075010000     4.2110920000    -4.5692250000
   37      C      -0.0022780000     4.7061770000    -5.9162070000
   38      H      -0.0092650000     5.8072070000    -5.8330640000
   39      H      -0.8953810000     4.3528750000    -6.4701680000
   40      H       0.9015210000     4.3633010000    -6.4592930000
   41      H      -0.0017080000     3.4015620000     1.3064860000
   42      H      -0.4564570000    -9.1436230000    -0.7920840000
   43      H       0.9274800000    -9.1494410000     0.3529730000
   44      H      -0.8320670000    -1.4431750000    -0.6884770000
 ----------------------------------------------------------------

   11   -2755.3458896634      7.81e-07  Convergence criterion met
 Total energy in the final basis set =    -2755.3458896634
        RIMP2         total energy =     -2760.4353202608 a.u.

                    Orbital Energies (a.u.)
 --------------------------------------------------------------

 Alpha MOs
 -- Occupied --
-92.0143 -91.9982 -91.9815 -91.9588 -26.3435 -20.6152 -20.5883 -20.5873
-20.5617 -11.4098 -11.3826 -11.3096 -11.3095 -11.3088 -11.3034 -11.2986
-11.2959 -11.2891 -11.2855 -11.2851 -11.2846 -11.2832 -11.2827 -11.2738
-11.2732 -11.2595 -11.2590 -11.2503 -11.2384  -9.0129  -8.9983  -8.9835
 -8.9614  -6.6937  -6.6931  -6.6925  -6.6794  -6.6786  -6.6775  -6.6647
 -6.6638  -6.6625  -6.6426  -6.6417  -6.6407  -1.6605  -1.4677  -1.4116
 -1.4092  -1.3704  -1.2299  -1.2032  -1.1745  -1.1372  -1.1014  -1.0473
 -1.0456  -1.0232  -1.0044  -0.9986  -0.9624  -0.9597  -0.9492  -0.9410
 -0.8949  -0.8712  -0.8647  -0.8098  -0.8000  -0.7900  -0.7848  -0.7685
 -0.7578  -0.7369  -0.7254  -0.7093  -0.7002  -0.6956  -0.6850  -0.6809
 -0.6742  -0.6649  -0.6566  -0.6491  -0.6374  -0.6309  -0.6207  -0.6153
 -0.6125  -0.5986  -0.5931  -0.5771  -0.5716  -0.5655  -0.5595  -0.5522
 -0.5480  -0.5349  -0.5314  -0.5273  -0.5133  -0.5089  -0.5083  -0.5025
 -0.4854  -0.4823  -0.4763  -0.4742  -0.4694  -0.4675  -0.4628  -0.4477
 -0.4301  -0.3962  -0.3865  -0.3709  -0.3504  -0.2995  -0.2896  -0.2195

          Ground-State Mulliken Net Atomic Charges

     Atom                 Charge (a.u.)
  ----------------------------------------
      1 C                    -0.070427
      2 C                    -0.255807
      3 S                    -0.133877
      4 C                    -0.046699
      5 H                     0.193881
      6 C                    -0.052450
      7 C                     0.223516
      8 C                     0.229927
      9 C                    -0.077536
     10 C                    -0.038227
     11 O                    -0.334435
     12 O                    -0.342777
     13 C                    -0.082945
     14 H                     0.120679
     15 H                     0.092208
     16 H                     0.092676
     17 C                    -0.087445
     18 H                     0.124098
     19 H                     0.093208
     20 H                     0.090201
     21 C                    -0.295678
     22 S                    -0.084408
     23 C                     0.093622
     24 H                     0.208874
     25 C                    -0.052333
     26 S                     0.085152
     27 C                    -0.203654
     28 C                     0.006931
     29 C                    -0.112566
     30 S                    -0.002843
     31 C                    -0.154810
     32 C                     0.396945
     33 F                    -0.206724
     34 C                     0.445187
     35 O                    -0.460546
     36 O                    -0.300494
     37 C                    -0.058660
     38 H                     0.121546
     39 H                     0.095224
     40 H                     0.095148
     41 H                     0.216814
     42 H                     0.117950
     43 H                     0.115591
     44 H                     0.195962
  ----------------------------------------
  Sum of atomic charges =     0.000000

                    Cartesian Multipole Moments
 -----------------------------------------------------------------
    Charge (ESU x 10^10)
                 0.0000
    Dipole Moment (Debye)
         X      -0.5983      Y       2.1206      Z       2.7755
       Tot       3.5438
    Quadrupole Moments (Debye-Ang)
        XX    -188.1714     XY       2.6808     YY    -172.3524
        XZ      -8.3095     YZ     -10.9244     ZZ    -201.5225

 Total job time:  323.47s(wall), 10626.52s(cpu)
        *  Thank you very much for using Q-Chem.  Have a nice day.  *
