 Q-Chem 5.4, Q-Chem, Inc., Pleasanton, CA (2021)
 Q-Chem 5.4.0 for Intel X86 EM64T Linux

User input:
--------------------------------------------------------------
$molecule
0 1
C	-0.318247	-8.517702	-0.041330
C	0.757333	-7.641575	-0.049453
S	-1.866383	-7.638634	-0.024919
C	0.380867	-6.264785	-0.049488
H	1.805573	-7.966081	-0.055368
C	-1.045647	-6.072714	-0.051115
C	-1.608077	-4.787049	-0.026203
C	1.282948	-5.162801	-0.026637
C	0.720187	-3.874817	0.002586
C	-0.707853	-3.683952	-0.001903
O	2.602386	-5.499772	-0.054867
O	-2.933517	-4.459055	0.003348
C	-3.881999	-5.329063	-0.602384
H	-4.825744	-4.755694	-0.675079
H	-4.070972	-6.238095	0.009592
H	-3.562152	-5.637262	-1.621263
C	3.588253	-4.572261	0.381947
H	4.535674	-5.139743	0.449872
H	3.342986	-4.153131	1.381388
H	3.728239	-3.739531	-0.341040
C	-1.080725	-2.306654	0.000348
S	1.542694	-2.306501	-0.010924
C	-0.000000	-1.435185	-0.000000
H	-2.127635	-1.978138	0.003612
C	0.000000	0.000000	0.000000
S	0.783786	0.451972	1.507541
C	2.145261	1.238908	0.718873
C	0.783650	0.451572	-1.067872
C	1.986396	1.148648	-0.686410
S	0.574133	0.327317	-2.805516
C	2.088363	1.207943	-3.054530
C	2.700548	1.564221	-1.862551
F	3.855718	2.236706	-1.819088
C	2.477307	1.430318	-4.456084
O	1.814592	1.038482	-5.406510
O	3.643162	2.112042	-4.569225
C	4.074530	2.355061	-5.916207
H	5.024556	2.911627	-5.833064
H	3.322010	2.951860	-6.470168
H	4.229490	1.400910	-6.459293
H	2.944986	1.702260	1.306486
H	-0.313367	-9.143623	0.858809
H	-0.325780	-9.149441	-0.937378
H	0.007439	-1.443175	1.079945
$end

$rem
JOBTYPE		SP
EXCHANGE	HF
CORRELATION	pRIMP2
BASIS		cc-pvtz
METHOD		rimp2
AUX_BASIS	rimp2-cc-pvtz
SOLVENT_METHOD	PCM
PURECART	11111
SYMMETRY	false
MEM_TOTAL	110000
SCF_CONVERGENCE = 6
THRESH=10
GUI = 2
$end

$solvent
dielectric 4.90
$end
--------------------------------------------------------------

             Standard Nuclear Orientation (Angstroms)
    I     Atom           X                Y                Z
 ----------------------------------------------------------------
    1      C      -0.3182470000    -8.5177020000    -0.0413300000
    2      C       0.7573330000    -7.6415750000    -0.0494530000
    3      S      -1.8663830000    -7.6386340000    -0.0249190000
    4      C       0.3808670000    -6.2647850000    -0.0494880000
    5      H       1.8055730000    -7.9660810000    -0.0553680000
    6      C      -1.0456470000    -6.0727140000    -0.0511150000
    7      C      -1.6080770000    -4.7870490000    -0.0262030000
    8      C       1.2829480000    -5.1628010000    -0.0266370000
    9      C       0.7201870000    -3.8748170000     0.0025860000
   10      C      -0.7078530000    -3.6839520000    -0.0019030000
   11      O       2.6023860000    -5.4997720000    -0.0548670000
   12      O      -2.9335170000    -4.4590550000     0.0033480000
   13      C      -3.8819990000    -5.3290630000    -0.6023840000
   14      H      -4.8257440000    -4.7556940000    -0.6750790000
   15      H      -4.0709720000    -6.2380950000     0.0095920000
   16      H      -3.5621520000    -5.6372620000    -1.6212630000
   17      C       3.5882530000    -4.5722610000     0.3819470000
   18      H       4.5356740000    -5.1397430000     0.4498720000
   19      H       3.3429860000    -4.1531310000     1.3813880000
   20      H       3.7282390000    -3.7395310000    -0.3410400000
   21      C      -1.0807250000    -2.3066540000     0.0003480000
   22      S       1.5426940000    -2.3065010000    -0.0109240000
   23      C       0.0000000000    -1.4351850000     0.0000000000
   24      H      -2.1276350000    -1.9781380000     0.0036120000
   25      C       0.0000000000     0.0000000000     0.0000000000
   26      S       0.7837860000     0.4519720000     1.5075410000
   27      C       2.1452610000     1.2389080000     0.7188730000
   28      C       0.7836500000     0.4515720000    -1.0678720000
   29      C       1.9863960000     1.1486480000    -0.6864100000
   30      S       0.5741330000     0.3273170000    -2.8055160000
   31      C       2.0883630000     1.2079430000    -3.0545300000
   32      C       2.7005480000     1.5642210000    -1.8625510000
   33      F       3.8557180000     2.2367060000    -1.8190880000
   34      C       2.4773070000     1.4303180000    -4.4560840000
   35      O       1.8145920000     1.0384820000    -5.4065100000
   36      O       3.6431620000     2.1120420000    -4.5692250000
   37      C       4.0745300000     2.3550610000    -5.9162070000
   38      H       5.0245560000     2.9116270000    -5.8330640000
   39      H       3.3220100000     2.9518600000    -6.4701680000
   40      H       4.2294900000     1.4009100000    -6.4592930000
   41      H       2.9449860000     1.7022600000     1.3064860000
   42      H      -0.3133670000    -9.1436230000     0.8588090000
   43      H      -0.3257800000    -9.1494410000    -0.9373780000
   44      H       0.0074390000    -1.4431750000     1.0799450000
 ----------------------------------------------------------------

   11   -2755.2729587428      7.21e-07  Convergence criterion met
 Total energy in the final basis set =    -2755.2729587428
        RIMP2         total energy =     -2760.3749247162 a.u.

                    Orbital Energies (a.u.)
 --------------------------------------------------------------

 Alpha MOs
 -- Occupied --
-92.0136 -92.0107 -91.9698 -91.9544 -26.3472 -20.6158 -20.5854 -20.5840
-20.5621 -11.4108 -11.3885 -11.3383 -11.3209 -11.3068 -11.3020 -11.2989
-11.2895 -11.2886 -11.2830 -11.2814 -11.2799 -11.2719 -11.2679 -11.2674
-11.2669 -11.2550 -11.2484 -11.2462 -11.2295  -9.0137  -9.0103  -8.9727
 -8.9571  -6.6943  -6.6933  -6.6931  -6.6912  -6.6905  -6.6895  -6.6538
 -6.6530  -6.6517  -6.6383  -6.6374  -6.6364  -1.6642  -1.4683  -1.4078
 -1.4067  -1.3710  -1.2435  -1.1994  -1.1712  -1.1421  -1.0967  -1.0502
 -1.0418  -1.0299  -1.0007  -0.9927  -0.9674  -0.9588  -0.9466  -0.9400
 -0.8906  -0.8739  -0.8579  -0.8216  -0.7980  -0.7864  -0.7819  -0.7652
 -0.7579  -0.7390  -0.7288  -0.7187  -0.6958  -0.6894  -0.6857  -0.6775
 -0.6750  -0.6629  -0.6541  -0.6467  -0.6347  -0.6307  -0.6167  -0.6137
 -0.6107  -0.6030  -0.5895  -0.5777  -0.5695  -0.5624  -0.5579  -0.5529
 -0.5342  -0.5320  -0.5305  -0.5241  -0.5130  -0.5087  -0.5052  -0.4980
 -0.4880  -0.4826  -0.4762  -0.4756  -0.4719  -0.4604  -0.4580  -0.4435
 -0.4187  -0.3959  -0.3856  -0.3670  -0.3458  -0.3140  -0.2858  -0.2154

          Ground-State Mulliken Net Atomic Charges

     Atom                 Charge (a.u.)
  ----------------------------------------
      1 C                    -0.069100
      2 C                    -0.280012
      3 S                    -0.144319
      4 C                    -0.042293
      5 H                     0.190574
      6 C                    -0.058209
      7 C                     0.228401
      8 C                     0.221933
      9 C                    -0.073520
     10 C                    -0.056749
     11 O                    -0.335604
     12 O                    -0.342901
     13 C                    -0.082547
     14 H                     0.119297
     15 H                     0.091674
     16 H                     0.092788
     17 C                    -0.086471
     18 H                     0.122672
     19 H                     0.090198
     20 H                     0.089247
     21 C                    -0.277438
     22 S                    -0.102156
     23 C                     0.037533
     24 H                     0.204913
     25 C                    -0.172236
     26 S                     0.107493
     27 C                    -0.105716
     28 C                     0.078669
     29 C                    -0.124599
     30 S                     0.064015
     31 C                    -0.152998
     32 C                     0.398382
     33 F                    -0.203604
     34 C                     0.448715
     35 O                    -0.462286
     36 O                    -0.301456
     37 C                    -0.058134
     38 H                     0.121488
     39 H                     0.095262
     40 H                     0.095512
     41 H                     0.222106
     42 H                     0.114093
     43 H                     0.112053
     44 H                     0.185330
  ----------------------------------------
  Sum of atomic charges =     0.000000

                    Cartesian Multipole Moments
 -----------------------------------------------------------------
    Charge (ESU x 10^10)
                 0.0000
    Dipole Moment (Debye)
         X       3.7652      Y       4.0173      Z       3.0538
       Tot       6.2961
    Quadrupole Moments (Debye-Ang)
        XX    -172.2408     XY       4.9201     YY    -199.0154
        XZ      -0.4299     YZ      -3.6147     ZZ    -201.8218

 Total job time:  346.03s(wall), 11507.84s(cpu)
        *  Thank you very much for using Q-Chem.  Have a nice day.  *
