 Q-Chem 5.4, Q-Chem, Inc., Pleasanton, CA (2021)
 Q-Chem 5.4.0 for Intel X86 EM64T Linux

User input:
--------------------------------------------------------------
$molecule
0 1
C	-0.254945	-8.517702	-0.194917
C	0.680596	-7.641575	0.335839
S	-1.603876	-7.638634	-0.954772
C	0.354585	-6.264785	0.147576
H	1.591356	-7.966081	0.854836
C	-0.879999	-6.072714	-0.567090
C	-1.379534	-4.787049	-0.826731
C	1.124384	-5.162801	0.618405
C	0.622407	-3.874817	0.362333
C	-0.612067	-3.683952	-0.355575
O	2.281166	-5.499772	1.253677
O	-2.542174	-4.459055	-1.463859
C	-3.060718	-5.329063	-2.462679
H	-3.841678	-4.755694	-2.997507
H	-3.530361	-6.238095	-2.027179
H	-2.274283	-5.637262	-3.185132
C	2.916545	-4.572261	2.124902
H	3.703073	-5.139743	2.657438
H	2.204417	-4.153131	2.867810
H	3.399269	-3.739531	1.568770
C	-0.936109	-2.306654	-0.540061
S	1.341474	-2.306501	0.761887
C	0.000000	-1.435185	0.000000
H	-1.844392	-1.978138	-1.060690
C	0.000000	0.000000	0.000000
S	0.000474	0.904764	1.507541
C	-0.000295	2.477305	0.718873
C	0.000752	0.904447	-1.067872
C	-0.001560	2.294593	-0.686410
S	0.003602	0.660872	-2.805516
C	-0.001928	2.412546	-3.054530
C	-0.004381	3.120854	-1.862551
F	-0.009185	4.457503	-1.819088
C	-0.000038	2.860570	-4.456084
O	0.007944	2.090724	-5.406510
O	-0.007501	4.211092	-4.569225
C	-0.002278	4.706177	-5.916207
H	-0.009265	5.807207	-5.833064
H	-0.895381	4.352875	-6.470168
H	0.901521	4.363301	-6.459293
H	-0.001708	3.401562	1.306486
H	-0.700788	-9.143623	0.587067
H	0.186556	-9.149441	-0.974683
H	-0.533530	-1.443175	0.938979
$end

$rem
JOBTYPE		SP
EXCHANGE	HF
CORRELATION	pRIMP2
BASIS		cc-pvtz
METHOD		rimp2
AUX_BASIS	rimp2-cc-pvtz
SOLVENT_METHOD	PCM
PURECART	11111
SYMMETRY	false
MEM_TOTAL	110000
SCF_CONVERGENCE = 6
THRESH=10
GUI = 2
$end

$solvent
dielectric 4.90
$end
--------------------------------------------------------------

             Standard Nuclear Orientation (Angstroms)
    I     Atom           X                Y                Z
 ----------------------------------------------------------------
    1      C      -0.2549450000    -8.5177020000    -0.1949170000
    2      C       0.6805960000    -7.6415750000     0.3358390000
    3      S      -1.6038760000    -7.6386340000    -0.9547720000
    4      C       0.3545850000    -6.2647850000     0.1475760000
    5      H       1.5913560000    -7.9660810000     0.8548360000
    6      C      -0.8799990000    -6.0727140000    -0.5670900000
    7      C      -1.3795340000    -4.7870490000    -0.8267310000
    8      C       1.1243840000    -5.1628010000     0.6184050000
    9      C       0.6224070000    -3.8748170000     0.3623330000
   10      C      -0.6120670000    -3.6839520000    -0.3555750000
   11      O       2.2811660000    -5.4997720000     1.2536770000
   12      O      -2.5421740000    -4.4590550000    -1.4638590000
   13      C      -3.0607180000    -5.3290630000    -2.4626790000
   14      H      -3.8416780000    -4.7556940000    -2.9975070000
   15      H      -3.5303610000    -6.2380950000    -2.0271790000
   16      H      -2.2742830000    -5.6372620000    -3.1851320000
   17      C       2.9165450000    -4.5722610000     2.1249020000
   18      H       3.7030730000    -5.1397430000     2.6574380000
   19      H       2.2044170000    -4.1531310000     2.8678100000
   20      H       3.3992690000    -3.7395310000     1.5687700000
   21      C      -0.9361090000    -2.3066540000    -0.5400610000
   22      S       1.3414740000    -2.3065010000     0.7618870000
   23      C       0.0000000000    -1.4351850000     0.0000000000
   24      H      -1.8443920000    -1.9781380000    -1.0606900000
   25      C       0.0000000000     0.0000000000     0.0000000000
   26      S       0.0004740000     0.9047640000     1.5075410000
   27      C      -0.0002950000     2.4773050000     0.7188730000
   28      C       0.0007520000     0.9044470000    -1.0678720000
   29      C      -0.0015600000     2.2945930000    -0.6864100000
   30      S       0.0036020000     0.6608720000    -2.8055160000
   31      C      -0.0019280000     2.4125460000    -3.0545300000
   32      C      -0.0043810000     3.1208540000    -1.8625510000
   33      F      -0.0091850000     4.4575030000    -1.8190880000
   34      C      -0.0000380000     2.8605700000    -4.4560840000
   35      O       0.0079440000     2.0907240000    -5.4065100000
   36      O      -0.0075010000     4.2110920000    -4.5692250000
   37      C      -0.0022780000     4.7061770000    -5.9162070000
   38      H      -0.0092650000     5.8072070000    -5.8330640000
   39      H      -0.8953810000     4.3528750000    -6.4701680000
   40      H       0.9015210000     4.3633010000    -6.4592930000
   41      H      -0.0017080000     3.4015620000     1.3064860000
   42      H      -0.7007880000    -9.1436230000     0.5870670000
   43      H       0.1865560000    -9.1494410000    -0.9746830000
   44      H      -0.5335300000    -1.4431750000     0.9389790000
 ----------------------------------------------------------------

   11   -2755.3453231502      7.89e-07  Convergence criterion met
 Total energy in the final basis set =    -2755.3453231502
        RIMP2         total energy =     -2760.4322997940 a.u.

                    Orbital Energies (a.u.)
 --------------------------------------------------------------

 Alpha MOs
 -- Occupied --
-92.0167 -91.9975 -91.9774 -91.9580 -26.3434 -20.6150 -20.5869 -20.5869
-20.5616 -11.4096 -11.3824 -11.3101 -11.3089 -11.3071 -11.3023 -11.2981
-11.2977 -11.2890 -11.2850 -11.2845 -11.2832 -11.2824 -11.2800 -11.2728
-11.2726 -11.2581 -11.2578 -11.2495 -11.2365  -9.0154  -8.9976  -8.9797
 -8.9606  -6.6961  -6.6956  -6.6950  -6.6786  -6.6779  -6.6768  -6.6608
 -6.6599  -6.6586  -6.6419  -6.6409  -6.6399  -1.6605  -1.4675  -1.4103
 -1.4087  -1.3702  -1.2287  -1.2027  -1.1736  -1.1377  -1.0998  -1.0459
 -1.0444  -1.0243  -1.0036  -0.9972  -0.9627  -0.9590  -0.9483  -0.9405
 -0.8933  -0.8685  -0.8668  -0.8125  -0.8001  -0.7886  -0.7847  -0.7676
 -0.7567  -0.7378  -0.7254  -0.7166  -0.6977  -0.6861  -0.6846  -0.6797
 -0.6740  -0.6609  -0.6561  -0.6484  -0.6344  -0.6307  -0.6198  -0.6149
 -0.6116  -0.5991  -0.5919  -0.5767  -0.5716  -0.5649  -0.5583  -0.5527
 -0.5494  -0.5327  -0.5308  -0.5270  -0.5132  -0.5077  -0.5068  -0.5015
 -0.4854  -0.4807  -0.4773  -0.4741  -0.4726  -0.4680  -0.4607  -0.4461
 -0.4256  -0.3987  -0.3850  -0.3701  -0.3513  -0.3002  -0.2888  -0.2199

          Ground-State Mulliken Net Atomic Charges

     Atom                 Charge (a.u.)
  ----------------------------------------
      1 C                    -0.070191
      2 C                    -0.260691
      3 S                    -0.135253
      4 C                    -0.044272
      5 H                     0.193234
      6 C                    -0.051909
      7 C                     0.225027
      8 C                     0.226000
      9 C                    -0.079684
     10 C                    -0.064227
     11 O                    -0.334928
     12 O                    -0.343585
     13 C                    -0.082610
     14 H                     0.120261
     15 H                     0.091705
     16 H                     0.093220
     17 C                    -0.086814
     18 H                     0.123139
     19 H                     0.091735
     20 H                     0.090396
     21 C                    -0.239760
     22 S                    -0.076307
     23 C                     0.081687
     24 H                     0.210463
     25 C                    -0.120089
     26 S                     0.089198
     27 C                    -0.186264
     28 C                     0.043805
     29 C                    -0.119735
     30 S                     0.005148
     31 C                    -0.156274
     32 C                     0.400749
     33 F                    -0.207290
     34 C                     0.443953
     35 O                    -0.460576
     36 O                    -0.300507
     37 C                    -0.058655
     38 H                     0.121413
     39 H                     0.095108
     40 H                     0.095231
     41 H                     0.218883
     42 H                     0.117104
     43 H                     0.114974
     44 H                     0.187189
  ----------------------------------------
  Sum of atomic charges =     0.000000

                    Cartesian Multipole Moments
 -----------------------------------------------------------------
    Charge (ESU x 10^10)
                 0.0000
    Dipole Moment (Debye)
         X      -0.2214      Y       2.9254      Z       3.5379
       Tot       4.5961
    Quadrupole Moments (Debye-Ang)
        XX    -193.9949     XY      -3.1547     YY    -175.0546
        XZ       9.2194     YZ      -9.2576     ZZ    -195.7786

 Total job time:  327.16s(wall), 10553.61s(cpu)
        *  Thank you very much for using Q-Chem.  Have a nice day.  *
