 Q-Chem 5.4, Q-Chem, Inc., Pleasanton, CA (2021)
 Q-Chem 5.4.0 for Intel X86 EM64T Linux

User input:
--------------------------------------------------------------
$molecule
0 1
C	-0.313191	-8.517702	0.070009
C	0.694746	-7.641575	-0.305494
S	-1.762350	-7.638634	0.614924
C	0.340973	-6.264785	-0.176768
H	1.677747	-7.966081	-0.669571
C	-1.000069	-6.072714	0.309600
C	-1.520060	-4.787049	0.525372
C	1.196466	-5.162801	-0.463825
C	0.677639	-3.874817	-0.243888
C	-0.665815	-3.683952	0.240312
O	2.426678	-5.499772	-0.941626
O	-2.755460	-4.459055	1.006468
C	-3.853913	-5.329063	0.761666
H	-4.765607	-4.755694	1.016135
H	-3.822182	-6.238095	1.401368
H	-3.901833	-5.637262	-0.305161
C	3.502489	-4.572261	-0.868342
H	4.416005	-5.139743	-1.128551
H	3.613841	-4.153131	0.154712
H	3.386756	-3.739531	-1.595605
C	-1.015430	-2.306654	0.369957
S	1.445922	-2.306501	-0.537898
C	0.000000	-1.435185	0.000000
H	-1.998088	-1.978138	0.731088
C	0.000000	0.000000	0.000000
S	0.452792	0.783312	1.507541
C	1.238397	2.145556	0.718873
C	0.452875	0.782898	-1.067872
C	1.145945	1.987956	-0.686410
S	0.333556	0.570531	-2.805516
C	1.204604	2.090290	-3.054530
C	1.556633	2.704929	-1.862551
F	2.220797	3.864903	-1.819088
C	1.430252	2.477345	-4.456084
O	1.052242	1.806648	-5.406510
O	2.099050	3.650663	-4.569225
C	2.351116	4.076808	-5.916207
H	2.895579	5.033821	-5.833064
H	1.401015	4.217390	-6.470168
H	2.962391	3.327969	-6.459293
H	1.699302	2.946693	1.306486
H	-0.000738	-9.143623	0.914194
H	-0.626735	-9.149441	-0.769424
H	0.376353	-1.443175	1.012272
$end

$rem
JOBTYPE		SP
EXCHANGE	HF
CORRELATION	pRIMP2
BASIS		cc-pvtz
METHOD		rimp2
AUX_BASIS	rimp2-cc-pvtz
SOLVENT_METHOD	PCM
PURECART	11111
SYMMETRY	false
MEM_TOTAL	110000
SCF_CONVERGENCE = 6
THRESH=10
GUI = 2
$end

$solvent
dielectric 4.90
$end
--------------------------------------------------------------

             Standard Nuclear Orientation (Angstroms)
    I     Atom           X                Y                Z
 ----------------------------------------------------------------
    1      C      -0.3131910000    -8.5177020000     0.0700090000
    2      C       0.6947460000    -7.6415750000    -0.3054940000
    3      S      -1.7623500000    -7.6386340000     0.6149240000
    4      C       0.3409730000    -6.2647850000    -0.1767680000
    5      H       1.6777470000    -7.9660810000    -0.6695710000
    6      C      -1.0000690000    -6.0727140000     0.3096000000
    7      C      -1.5200600000    -4.7870490000     0.5253720000
    8      C       1.1964660000    -5.1628010000    -0.4638250000
    9      C       0.6776390000    -3.8748170000    -0.2438880000
   10      C      -0.6658150000    -3.6839520000     0.2403120000
   11      O       2.4266780000    -5.4997720000    -0.9416260000
   12      O      -2.7554600000    -4.4590550000     1.0064680000
   13      C      -3.8539130000    -5.3290630000     0.7616660000
   14      H      -4.7656070000    -4.7556940000     1.0161350000
   15      H      -3.8221820000    -6.2380950000     1.4013680000
   16      H      -3.9018330000    -5.6372620000    -0.3051610000
   17      C       3.5024890000    -4.5722610000    -0.8683420000
   18      H       4.4160050000    -5.1397430000    -1.1285510000
   19      H       3.6138410000    -4.1531310000     0.1547120000
   20      H       3.3867560000    -3.7395310000    -1.5956050000
   21      C      -1.0154300000    -2.3066540000     0.3699570000
   22      S       1.4459220000    -2.3065010000    -0.5378980000
   23      C       0.0000000000    -1.4351850000     0.0000000000
   24      H      -1.9980880000    -1.9781380000     0.7310880000
   25      C       0.0000000000     0.0000000000     0.0000000000
   26      S       0.4527920000     0.7833120000     1.5075410000
   27      C       1.2383970000     2.1455560000     0.7188730000
   28      C       0.4528750000     0.7828980000    -1.0678720000
   29      C       1.1459450000     1.9879560000    -0.6864100000
   30      S       0.3335560000     0.5705310000    -2.8055160000
   31      C       1.2046040000     2.0902900000    -3.0545300000
   32      C       1.5566330000     2.7049290000    -1.8625510000
   33      F       2.2207970000     3.8649030000    -1.8190880000
   34      C       1.4302520000     2.4773450000    -4.4560840000
   35      O       1.0522420000     1.8066480000    -5.4065100000
   36      O       2.0990500000     3.6506630000    -4.5692250000
   37      C       2.3511160000     4.0768080000    -5.9162070000
   38      H       2.8955790000     5.0338210000    -5.8330640000
   39      H       1.4010150000     4.2173900000    -6.4701680000
   40      H       2.9623910000     3.3279690000    -6.4592930000
   41      H       1.6993020000     2.9466930000     1.3064860000
   42      H      -0.0007380000    -9.1436230000     0.9141940000
   43      H      -0.6267350000    -9.1494410000    -0.7694240000
   44      H       0.3763530000    -1.4431750000     1.0122720000
 ----------------------------------------------------------------

   11   -2755.3275460163      7.55e-07  Convergence criterion met
 Total energy in the final basis set =    -2755.3275460163
        RIMP2         total energy =     -2760.4185785747 a.u.

                    Orbital Energies (a.u.)
 --------------------------------------------------------------

 Alpha MOs
 -- Occupied --
-92.0152 -92.0002 -91.9765 -91.9567 -26.3442 -20.6151 -20.5867 -20.5856
-20.5616 -11.4097 -11.3837 -11.3173 -11.3082 -11.3051 -11.3036 -11.2981
-11.2941 -11.2890 -11.2859 -11.2837 -11.2824 -11.2818 -11.2769 -11.2706
-11.2706 -11.2569 -11.2542 -11.2483 -11.2337  -9.0144  -9.0002  -8.9786
 -8.9593  -6.6951  -6.6944  -6.6939  -6.6812  -6.6804  -6.6793  -6.6597
 -6.6588  -6.6576  -6.6406  -6.6397  -6.6386  -1.6613  -1.4676  -1.4093
 -1.4082  -1.3703  -1.2318  -1.2015  -1.1724  -1.1388  -1.0984  -1.0464
 -1.0437  -1.0260  -1.0027  -0.9952  -0.9641  -0.9579  -0.9476  -0.9406
 -0.8923  -0.8695  -0.8640  -0.8162  -0.7960  -0.7887  -0.7835  -0.7669
 -0.7568  -0.7377  -0.7261  -0.7170  -0.6962  -0.6873  -0.6848  -0.6791
 -0.6742  -0.6610  -0.6553  -0.6479  -0.6346  -0.6296  -0.6186  -0.6145
 -0.6109  -0.5999  -0.5913  -0.5752  -0.5724  -0.5629  -0.5597  -0.5556
 -0.5444  -0.5329  -0.5313  -0.5238  -0.5121  -0.5086  -0.5066  -0.5003
 -0.4855  -0.4817  -0.4758  -0.4741  -0.4687  -0.4679  -0.4598  -0.4456
 -0.4235  -0.3984  -0.3836  -0.3688  -0.3518  -0.3027  -0.2883  -0.2184

          Ground-State Mulliken Net Atomic Charges

     Atom                 Charge (a.u.)
  ----------------------------------------
      1 C                    -0.069631
      2 C                    -0.268884
      3 S                    -0.139283
      4 C                    -0.042475
      5 H                     0.192220
      6 C                    -0.053292
      7 C                     0.222125
      8 C                     0.220940
      9 C                    -0.071208
     10 C                    -0.044313
     11 O                    -0.335237
     12 O                    -0.343430
     13 C                    -0.082659
     14 H                     0.119612
     15 H                     0.091998
     16 H                     0.093083
     17 C                    -0.087185
     18 H                     0.123118
     19 H                     0.091361
     20 H                     0.090706
     21 C                    -0.267342
     22 S                    -0.073549
     23 C                     0.043991
     24 H                     0.204190
     25 C                    -0.035513
     26 S                     0.090939
     27 C                    -0.174714
     28 C                    -0.058743
     29 C                    -0.075466
     30 S                     0.028627
     31 C                    -0.153644
     32 C                     0.393585
     33 F                    -0.206214
     34 C                     0.445823
     35 O                    -0.460568
     36 O                    -0.301012
     37 C                    -0.058388
     38 H                     0.121381
     39 H                     0.095205
     40 H                     0.095224
     41 H                     0.219305
     42 H                     0.115919
     43 H                     0.113837
     44 H                     0.189563
  ----------------------------------------
  Sum of atomic charges =     0.000000

                    Cartesian Multipole Moments
 -----------------------------------------------------------------
    Charge (ESU x 10^10)
                 0.0000
    Dipole Moment (Debye)
         X       1.8811      Y       3.5111      Z       3.3262
       Tot       5.1894
    Quadrupole Moments (Debye-Ang)
        XX    -179.4615     XY       3.7188     YY    -183.6367
        XZ      -3.9744     YZ      -5.0314     ZZ    -205.6604

 Total job time:  335.08s(wall), 10790.06s(cpu)
        *  Thank you very much for using Q-Chem.  Have a nice day.  *
