 Q-Chem 5.4, Q-Chem, Inc., Pleasanton, CA (2021)
 Q-Chem 5.4.0 for Intel X86 EM64T Linux

User input:
--------------------------------------------------------------
$molecule
0 1
C	-0.236226	-8.517702	0.217225
C	0.448921	-7.641575	-0.611939
S	-1.218777	-7.638634	1.413715
C	0.206907	-6.264785	-0.323572
H	1.118185	-7.966081	-1.418739
C	-0.711285	-6.072714	0.768156
C	-1.053725	-4.787049	1.215016
C	0.804258	-5.162801	-0.999917
C	0.464908	-3.874817	-0.550033
C	-0.456457	-3.683952	0.541024
O	1.630752	-5.499772	-2.028811
O	-1.883064	-4.459055	2.249357
C	-2.956754	-5.329063	2.586579
H	-3.619069	-4.755694	3.262802
H	-2.609423	-6.238095	3.124711
H	-3.531667	-5.637262	1.686639
C	2.599073	-4.572261	-2.503251
H	3.260097	-5.139743	-3.185356
H	3.207034	-4.153131	-1.672937
H	2.135214	-3.739531	-3.075213
C	-0.694410	-2.306654	0.828107
S	0.983256	-2.306501	-1.188794
C	0.000000	-1.435185	0.000000
H	-1.364851	-1.978138	1.632185
C	0.000000	0.000000	0.000000
S	0.452792	0.783312	1.507541
C	1.238397	2.145556	0.718873
C	0.452875	0.782898	-1.067872
C	1.145945	1.987956	-0.686410
S	0.333556	0.570531	-2.805516
C	1.204604	2.090290	-3.054530
C	1.556633	2.704929	-1.862551
F	2.220797	3.864903	-1.819088
C	1.430252	2.477345	-4.456084
O	1.052242	1.806648	-5.406510
O	2.099050	3.650663	-4.569225
C	2.351116	4.076808	-5.916207
H	2.895579	5.033821	-5.833064
H	1.401015	4.217390	-6.470168
H	2.962391	3.327969	-6.459293
H	1.699302	2.946693	1.306486
H	0.456457	-9.143623	0.792084
H	-0.927480	-9.149441	-0.352973
H	0.832067	-1.443175	0.688477
$end

$rem
JOBTYPE		SP
EXCHANGE	HF
CORRELATION	pRIMP2
BASIS		cc-pvtz
METHOD		rimp2
AUX_BASIS	rimp2-cc-pvtz
SOLVENT_METHOD	PCM
PURECART	11111
SYMMETRY	false
MEM_TOTAL	110000
SCF_CONVERGENCE = 6
THRESH=10
GUI = 2
$end

$solvent
dielectric 4.90
$end
--------------------------------------------------------------

             Standard Nuclear Orientation (Angstroms)
    I     Atom           X                Y                Z
 ----------------------------------------------------------------
    1      C      -0.2362260000    -8.5177020000     0.2172250000
    2      C       0.4489210000    -7.6415750000    -0.6119390000
    3      S      -1.2187770000    -7.6386340000     1.4137150000
    4      C       0.2069070000    -6.2647850000    -0.3235720000
    5      H       1.1181850000    -7.9660810000    -1.4187390000
    6      C      -0.7112850000    -6.0727140000     0.7681560000
    7      C      -1.0537250000    -4.7870490000     1.2150160000
    8      C       0.8042580000    -5.1628010000    -0.9999170000
    9      C       0.4649080000    -3.8748170000    -0.5500330000
   10      C      -0.4564570000    -3.6839520000     0.5410240000
   11      O       1.6307520000    -5.4997720000    -2.0288110000
   12      O      -1.8830640000    -4.4590550000     2.2493570000
   13      C      -2.9567540000    -5.3290630000     2.5865790000
   14      H      -3.6190690000    -4.7556940000     3.2628020000
   15      H      -2.6094230000    -6.2380950000     3.1247110000
   16      H      -3.5316670000    -5.6372620000     1.6866390000
   17      C       2.5990730000    -4.5722610000    -2.5032510000
   18      H       3.2600970000    -5.1397430000    -3.1853560000
   19      H       3.2070340000    -4.1531310000    -1.6729370000
   20      H       2.1352140000    -3.7395310000    -3.0752130000
   21      C      -0.6944100000    -2.3066540000     0.8281070000
   22      S       0.9832560000    -2.3065010000    -1.1887940000
   23      C       0.0000000000    -1.4351850000     0.0000000000
   24      H      -1.3648510000    -1.9781380000     1.6321850000
   25      C       0.0000000000     0.0000000000     0.0000000000
   26      S       0.4527920000     0.7833120000     1.5075410000
   27      C       1.2383970000     2.1455560000     0.7188730000
   28      C       0.4528750000     0.7828980000    -1.0678720000
   29      C       1.1459450000     1.9879560000    -0.6864100000
   30      S       0.3335560000     0.5705310000    -2.8055160000
   31      C       1.2046040000     2.0902900000    -3.0545300000
   32      C       1.5566330000     2.7049290000    -1.8625510000
   33      F       2.2207970000     3.8649030000    -1.8190880000
   34      C       1.4302520000     2.4773450000    -4.4560840000
   35      O       1.0522420000     1.8066480000    -5.4065100000
   36      O       2.0990500000     3.6506630000    -4.5692250000
   37      C       2.3511160000     4.0768080000    -5.9162070000
   38      H       2.8955790000     5.0338210000    -5.8330640000
   39      H       1.4010150000     4.2173900000    -6.4701680000
   40      H       2.9623910000     3.3279690000    -6.4592930000
   41      H       1.6993020000     2.9466930000     1.3064860000
   42      H       0.4564570000    -9.1436230000     0.7920840000
   43      H      -0.9274800000    -9.1494410000    -0.3529730000
   44      H       0.8320670000    -1.4431750000     0.6884770000
 ----------------------------------------------------------------

   11   -2755.3271523199      8.12e-07  Convergence criterion met
 Total energy in the final basis set =    -2755.3271523199
        RIMP2         total energy =     -2760.4203887801 a.u.

                    Orbital Energies (a.u.)
 --------------------------------------------------------------

 Alpha MOs
 -- Occupied --
-92.0116 -91.9969 -91.9778 -91.9583 -26.3431 -20.6149 -20.5873 -20.5868
-20.5614 -11.4094 -11.3821 -11.3119 -11.3089 -11.3077 -11.3013 -11.2986
-11.2974 -11.2889 -11.2851 -11.2840 -11.2830 -11.2822 -11.2793 -11.2729
-11.2701 -11.2582 -11.2575 -11.2498 -11.2372  -9.0111  -8.9971  -8.9799
 -8.9609  -6.6919  -6.6913  -6.6907  -6.6781  -6.6773  -6.6762  -6.6610
 -6.6601  -6.6588  -6.6421  -6.6412  -6.6402  -1.6602  -1.4673  -1.4103
 -1.4090  -1.3700  -1.2323  -1.2015  -1.1739  -1.1384  -1.0994  -1.0474
 -1.0440  -1.0254  -1.0033  -0.9961  -0.9639  -0.9570  -0.9487  -0.9413
 -0.8935  -0.8684  -0.8642  -0.8159  -0.7937  -0.7893  -0.7839  -0.7685
 -0.7564  -0.7376  -0.7252  -0.7151  -0.6964  -0.6890  -0.6847  -0.6803
 -0.6739  -0.6627  -0.6558  -0.6486  -0.6367  -0.6300  -0.6201  -0.6152
 -0.6109  -0.5996  -0.5924  -0.5768  -0.5710  -0.5641  -0.5597  -0.5577
 -0.5461  -0.5332  -0.5311  -0.5248  -0.5128  -0.5106  -0.5074  -0.5012
 -0.4845  -0.4804  -0.4760  -0.4736  -0.4692  -0.4666  -0.4589  -0.4470
 -0.4288  -0.3940  -0.3853  -0.3696  -0.3526  -0.2981  -0.2889  -0.2181

          Ground-State Mulliken Net Atomic Charges

     Atom                 Charge (a.u.)
  ----------------------------------------
      1 C                    -0.070194
      2 C                    -0.259029
      3 S                    -0.136012
      4 C                    -0.047585
      5 H                     0.193696
      6 C                    -0.047609
      7 C                     0.214222
      8 C                     0.224950
      9 C                    -0.073415
     10 C                    -0.021661
     11 O                    -0.334649
     12 O                    -0.343565
     13 C                    -0.082767
     14 H                     0.119798
     15 H                     0.092005
     16 H                     0.093144
     17 C                    -0.088916
     18 H                     0.123903
     19 H                     0.091937
     20 H                     0.091825
     21 C                    -0.312463
     22 S                    -0.088591
     23 C                     0.104530
     24 H                     0.202688
     25 C                    -0.011445
     26 S                     0.083598
     27 C                    -0.189483
     28 C                    -0.093342
     29 C                    -0.079700
     30 S                     0.021404
     31 C                    -0.155918
     32 C                     0.401730
     33 F                    -0.207526
     34 C                     0.443244
     35 O                    -0.460335
     36 O                    -0.300802
     37 C                    -0.058522
     38 H                     0.121391
     39 H                     0.095230
     40 H                     0.095038
     41 H                     0.217247
     42 H                     0.117429
     43 H                     0.115277
     44 H                     0.199243
  ----------------------------------------
  Sum of atomic charges =     0.000000

                    Cartesian Multipole Moments
 -----------------------------------------------------------------
    Charge (ESU x 10^10)
                -0.0000
    Dipole Moment (Debye)
         X       2.0291      Y       2.3416      Z       3.0918
       Tot       4.3772
    Quadrupole Moments (Debye-Ang)
        XX    -184.2652     XY       4.3029     YY    -178.2462
        XZ     -11.9563     YZ      -3.1969     ZZ    -201.2249

 Total job time:  340.75s(wall), 10621.68s(cpu)
        *  Thank you very much for using Q-Chem.  Have a nice day.  *
