 Q-Chem 5.4, Q-Chem, Inc., Pleasanton, CA (2021)
 Q-Chem 5.4.0 for Intel X86 EM64T Linux

User input:
--------------------------------------------------------------
$molecule
0 1
C	-0.284919	-8.517702	-0.147685
C	0.728574	-7.641575	0.212552
S	-1.745304	-7.638634	-0.661757
C	0.374824	-6.264785	0.083761
H	1.715621	-7.966081	0.565513
C	-0.965104	-6.072714	-0.405665
C	-1.502136	-4.787049	-0.574617
C	1.214687	-5.162801	0.413763
C	0.675870	-3.874817	0.248748
C	-0.664513	-3.683952	-0.243888
O	2.464209	-5.499772	0.838511
O	-2.757750	-4.459055	-1.000176
C	-3.441858	-5.329063	-1.893778
H	-4.303826	-4.755694	-2.284868
H	-3.828743	-6.238095	-1.383341
H	-2.792824	-5.637262	-2.741817
C	3.241222	-4.572261	1.586168
H	4.108274	-5.139743	1.974033
H	2.668916	-4.153131	2.441448
H	3.620041	-3.739531	0.954660
C	-1.015668	-2.306654	-0.369302
S	1.453394	-2.306501	0.517367
C	-0.000000	-1.435185	-0.000000
H	-2.000559	-1.978138	-0.724300
C	0.000000	0.000000	0.000000
S	0.157577	0.890937	1.507541
C	0.429889	2.439720	0.718873
C	0.157797	0.890576	-1.067872
C	0.396915	2.260004	-0.686410
S	0.118307	0.650207	-2.805516
C	0.417036	2.376229	-3.054530
C	0.537616	3.074202	-1.862551
F	0.764992	4.391378	-1.819088
C	0.496696	2.817118	-4.456084
O	0.370874	2.057582	-5.406510
O	0.723861	4.148418	-4.569225
C	0.814976	4.635075	-5.916207
H	0.999286	5.720591	-5.833064
H	-0.125909	4.442226	-6.470168
H	1.645504	4.140465	-6.459293
H	0.588993	3.350182	1.306486
H	-0.588198	-9.143623	0.699838
H	0.014470	-9.149441	-0.992270
H	-0.362373	-1.443175	1.017360
$end

$rem
JOBTYPE		SP
EXCHANGE	HF
CORRELATION	pRIMP2
BASIS		cc-pvtz
METHOD		rimp2
AUX_BASIS	rimp2-cc-pvtz
SOLVENT_METHOD	PCM
PURECART	11111
SYMMETRY	false
MEM_TOTAL	110000
SCF_CONVERGENCE = 6
THRESH=10
GUI = 2
$end

$solvent
dielectric 4.90
$end
--------------------------------------------------------------

             Standard Nuclear Orientation (Angstroms)
    I     Atom           X                Y                Z
 ----------------------------------------------------------------
    1      C      -0.2849190000    -8.5177020000    -0.1476850000
    2      C       0.7285740000    -7.6415750000     0.2125520000
    3      S      -1.7453040000    -7.6386340000    -0.6617570000
    4      C       0.3748240000    -6.2647850000     0.0837610000
    5      H       1.7156210000    -7.9660810000     0.5655130000
    6      C      -0.9651040000    -6.0727140000    -0.4056650000
    7      C      -1.5021360000    -4.7870490000    -0.5746170000
    8      C       1.2146870000    -5.1628010000     0.4137630000
    9      C       0.6758700000    -3.8748170000     0.2487480000
   10      C      -0.6645130000    -3.6839520000    -0.2438880000
   11      O       2.4642090000    -5.4997720000     0.8385110000
   12      O      -2.7577500000    -4.4590550000    -1.0001760000
   13      C      -3.4418580000    -5.3290630000    -1.8937780000
   14      H      -4.3038260000    -4.7556940000    -2.2848680000
   15      H      -3.8287430000    -6.2380950000    -1.3833410000
   16      H      -2.7928240000    -5.6372620000    -2.7418170000
   17      C       3.2412220000    -4.5722610000     1.5861680000
   18      H       4.1082740000    -5.1397430000     1.9740330000
   19      H       2.6689160000    -4.1531310000     2.4414480000
   20      H       3.6200410000    -3.7395310000     0.9546600000
   21      C      -1.0156680000    -2.3066540000    -0.3693020000
   22      S       1.4533940000    -2.3065010000     0.5173670000
   23      C       0.0000000000    -1.4351850000     0.0000000000
   24      H      -2.0005590000    -1.9781380000    -0.7243000000
   25      C       0.0000000000     0.0000000000     0.0000000000
   26      S       0.1575770000     0.8909370000     1.5075410000
   27      C       0.4298890000     2.4397200000     0.7188730000
   28      C       0.1577970000     0.8905760000    -1.0678720000
   29      C       0.3969150000     2.2600040000    -0.6864100000
   30      S       0.1183070000     0.6502070000    -2.8055160000
   31      C       0.4170360000     2.3762290000    -3.0545300000
   32      C       0.5376160000     3.0742020000    -1.8625510000
   33      F       0.7649920000     4.3913780000    -1.8190880000
   34      C       0.4966960000     2.8171180000    -4.4560840000
   35      O       0.3708740000     2.0575820000    -5.4065100000
   36      O       0.7238610000     4.1484180000    -4.5692250000
   37      C       0.8149760000     4.6350750000    -5.9162070000
   38      H       0.9992860000     5.7205910000    -5.8330640000
   39      H      -0.1259090000     4.4422260000    -6.4701680000
   40      H       1.6455040000     4.1404650000    -6.4592930000
   41      H       0.5889930000     3.3501820000     1.3064860000
   42      H      -0.5881980000    -9.1436230000     0.6998380000
   43      H       0.0144700000    -9.1494410000    -0.9922700000
   44      H      -0.3623730000    -1.4431750000     1.0173600000
 ----------------------------------------------------------------

   11   -2755.3437380388      7.62e-07  Convergence criterion met
 Total energy in the final basis set =    -2755.3437380388
        RIMP2         total energy =     -2760.4309922299 a.u.

                    Orbital Energies (a.u.)
 --------------------------------------------------------------

 Alpha MOs
 -- Occupied --
-92.0175 -91.9983 -91.9768 -91.9577 -26.3436 -20.6150 -20.5869 -20.5865
-20.5615 -11.4096 -11.3826 -11.3119 -11.3087 -11.3064 -11.2998 -11.2985
-11.2981 -11.2890 -11.2852 -11.2843 -11.2827 -11.2824 -11.2790 -11.2722
-11.2722 -11.2578 -11.2568 -11.2492 -11.2358  -9.0161  -8.9984  -8.9791
 -8.9603  -6.6968  -6.6963  -6.6957  -6.6794  -6.6787  -6.6776  -6.6601
 -6.6592  -6.6580  -6.6415  -6.6406  -6.6396  -1.6607  -1.4675  -1.4099
 -1.4086  -1.3702  -1.2286  -1.2024  -1.1732  -1.1377  -1.0994  -1.0456
 -1.0443  -1.0246  -1.0034  -0.9966  -0.9628  -0.9589  -0.9480  -0.9404
 -0.8930  -0.8686  -0.8665  -0.8132  -0.7991  -0.7885  -0.7845  -0.7674
 -0.7567  -0.7376  -0.7255  -0.7169  -0.6973  -0.6861  -0.6846  -0.6794
 -0.6740  -0.6604  -0.6558  -0.6482  -0.6336  -0.6304  -0.6195  -0.6147
 -0.6114  -0.5992  -0.5915  -0.5762  -0.5715  -0.5644  -0.5582  -0.5531
 -0.5481  -0.5328  -0.5310  -0.5261  -0.5129  -0.5076  -0.5068  -0.5012
 -0.4853  -0.4814  -0.4764  -0.4741  -0.4721  -0.4684  -0.4606  -0.4459
 -0.4238  -0.3992  -0.3848  -0.3697  -0.3509  -0.3013  -0.2888  -0.2201

          Ground-State Mulliken Net Atomic Charges

     Atom                 Charge (a.u.)
  ----------------------------------------
      1 C                    -0.070065
      2 C                    -0.262948
      3 S                    -0.136311
      4 C                    -0.043024
      5 H                     0.192949
      6 C                    -0.052634
      7 C                     0.226794
      8 C                     0.222867
      9 C                    -0.076471
     10 C                    -0.057663
     11 O                    -0.335087
     12 O                    -0.343568
     13 C                    -0.082611
     14 H                     0.120093
     15 H                     0.091713
     16 H                     0.093218
     17 C                    -0.086621
     18 H                     0.122963
     19 H                     0.091534
     20 H                     0.090518
     21 C                    -0.244131
     22 S                    -0.073599
     23 C                     0.063441
     24 H                     0.207262
     25 C                    -0.110455
     26 S                     0.092587
     27 C                    -0.185655
     28 C                     0.043437
     29 C                    -0.114396
     30 S                     0.007731
     31 C                    -0.157072
     32 C                     0.401246
     33 F                    -0.207093
     34 C                     0.443877
     35 O                    -0.460607
     36 O                    -0.300634
     37 C                    -0.058585
     38 H                     0.121362
     39 H                     0.095126
     40 H                     0.095243
     41 H                     0.218944
     42 H                     0.116768
     43 H                     0.114652
     44 H                     0.184904
  ----------------------------------------
  Sum of atomic charges =     0.000000

                    Cartesian Multipole Moments
 -----------------------------------------------------------------
    Charge (ESU x 10^10)
                -0.0000
    Dipole Moment (Debye)
         X       0.3849      Y       3.1951      Z       3.5135
       Tot       4.7646
    Quadrupole Moments (Debye-Ang)
        XX    -190.3454     XY      -0.6258     YY    -176.7938
        XZ       7.7902     YZ      -8.5053     ZZ    -198.8153

 Total job time:  367.75s(wall), 11257.57s(cpu)
        *  Thank you very much for using Q-Chem.  Have a nice day.  *
