 Q-Chem 5.4, Q-Chem, Inc., Pleasanton, CA (2021)
 Q-Chem 5.4.0 for Intel X86 EM64T Linux

User input:
--------------------------------------------------------------
$molecule
0 1
C	-0.284919	-8.517702	-0.147685
C	0.728574	-7.641575	0.212552
S	-1.745304	-7.638634	-0.661757
C	0.374824	-6.264785	0.083761
H	1.715621	-7.966081	0.565513
C	-0.965104	-6.072714	-0.405665
C	-1.502136	-4.787049	-0.574617
C	1.214687	-5.162801	0.413763
C	0.675870	-3.874817	0.248748
C	-0.664513	-3.683952	-0.243888
O	2.464209	-5.499772	0.838511
O	-2.757750	-4.459055	-1.000176
C	-3.441858	-5.329063	-1.893778
H	-4.303826	-4.755694	-2.284868
H	-3.828743	-6.238095	-1.383341
H	-2.792824	-5.637262	-2.741817
C	3.241222	-4.572261	1.586168
H	4.108274	-5.139743	1.974033
H	2.668916	-4.153131	2.441448
H	3.620041	-3.739531	0.954660
C	-1.015668	-2.306654	-0.369302
S	1.453394	-2.306501	0.517367
C	-0.000000	-1.435185	-0.000000
H	-2.000559	-1.978138	-0.724300
C	0.000000	0.000000	0.000000
S	0.783786	0.451972	1.507541
C	2.145261	1.238908	0.718873
C	0.783650	0.451572	-1.067872
C	1.986396	1.148648	-0.686410
S	0.574133	0.327317	-2.805516
C	2.088363	1.207943	-3.054530
C	2.700548	1.564221	-1.862551
F	3.855718	2.236706	-1.819088
C	2.477307	1.430318	-4.456084
O	1.814592	1.038482	-5.406510
O	3.643162	2.112042	-4.569225
C	4.074530	2.355061	-5.916207
H	5.024556	2.911627	-5.833064
H	3.322010	2.951860	-6.470168
H	4.229490	1.400910	-6.459293
H	2.944986	1.702260	1.306486
H	-0.588198	-9.143623	0.699838
H	0.014470	-9.149441	-0.992270
H	-0.362373	-1.443175	1.017360
$end

$rem
JOBTYPE		SP
EXCHANGE	HF
CORRELATION	pRIMP2
BASIS		cc-pvtz
METHOD		rimp2
AUX_BASIS	rimp2-cc-pvtz
SOLVENT_METHOD	PCM
PURECART	11111
SYMMETRY	false
MEM_TOTAL	110000
SCF_CONVERGENCE = 6
THRESH=10
GUI = 2
$end

$solvent
dielectric 4.90
$end
--------------------------------------------------------------

             Standard Nuclear Orientation (Angstroms)
    I     Atom           X                Y                Z
 ----------------------------------------------------------------
    1      C      -0.2849190000    -8.5177020000    -0.1476850000
    2      C       0.7285740000    -7.6415750000     0.2125520000
    3      S      -1.7453040000    -7.6386340000    -0.6617570000
    4      C       0.3748240000    -6.2647850000     0.0837610000
    5      H       1.7156210000    -7.9660810000     0.5655130000
    6      C      -0.9651040000    -6.0727140000    -0.4056650000
    7      C      -1.5021360000    -4.7870490000    -0.5746170000
    8      C       1.2146870000    -5.1628010000     0.4137630000
    9      C       0.6758700000    -3.8748170000     0.2487480000
   10      C      -0.6645130000    -3.6839520000    -0.2438880000
   11      O       2.4642090000    -5.4997720000     0.8385110000
   12      O      -2.7577500000    -4.4590550000    -1.0001760000
   13      C      -3.4418580000    -5.3290630000    -1.8937780000
   14      H      -4.3038260000    -4.7556940000    -2.2848680000
   15      H      -3.8287430000    -6.2380950000    -1.3833410000
   16      H      -2.7928240000    -5.6372620000    -2.7418170000
   17      C       3.2412220000    -4.5722610000     1.5861680000
   18      H       4.1082740000    -5.1397430000     1.9740330000
   19      H       2.6689160000    -4.1531310000     2.4414480000
   20      H       3.6200410000    -3.7395310000     0.9546600000
   21      C      -1.0156680000    -2.3066540000    -0.3693020000
   22      S       1.4533940000    -2.3065010000     0.5173670000
   23      C       0.0000000000    -1.4351850000     0.0000000000
   24      H      -2.0005590000    -1.9781380000    -0.7243000000
   25      C       0.0000000000     0.0000000000     0.0000000000
   26      S       0.7837860000     0.4519720000     1.5075410000
   27      C       2.1452610000     1.2389080000     0.7188730000
   28      C       0.7836500000     0.4515720000    -1.0678720000
   29      C       1.9863960000     1.1486480000    -0.6864100000
   30      S       0.5741330000     0.3273170000    -2.8055160000
   31      C       2.0883630000     1.2079430000    -3.0545300000
   32      C       2.7005480000     1.5642210000    -1.8625510000
   33      F       3.8557180000     2.2367060000    -1.8190880000
   34      C       2.4773070000     1.4303180000    -4.4560840000
   35      O       1.8145920000     1.0384820000    -5.4065100000
   36      O       3.6431620000     2.1120420000    -4.5692250000
   37      C       4.0745300000     2.3550610000    -5.9162070000
   38      H       5.0245560000     2.9116270000    -5.8330640000
   39      H       3.3220100000     2.9518600000    -6.4701680000
   40      H       4.2294900000     1.4009100000    -6.4592930000
   41      H       2.9449860000     1.7022600000     1.3064860000
   42      H      -0.5881980000    -9.1436230000     0.6998380000
   43      H       0.0144700000    -9.1494410000    -0.9922700000
   44      H      -0.3623730000    -1.4431750000     1.0173600000
 ----------------------------------------------------------------

   11   -2755.2754938569      7.15e-07  Convergence criterion met
 Total energy in the final basis set =    -2755.2754938569
        RIMP2         total energy =     -2760.3773554503 a.u.

                    Orbital Energies (a.u.)
 --------------------------------------------------------------

 Alpha MOs
 -- Occupied --
-92.0142 -92.0111 -91.9683 -91.9547 -26.3469 -20.6159 -20.5853 -20.5837
-20.5622 -11.4110 -11.3880 -11.3384 -11.3195 -11.3067 -11.3014 -11.2990
-11.2896 -11.2884 -11.2829 -11.2813 -11.2791 -11.2726 -11.2682 -11.2676
-11.2656 -11.2550 -11.2496 -11.2464 -11.2299  -9.0141  -9.0107  -8.9713
 -8.9574  -6.6948  -6.6938  -6.6936  -6.6916  -6.6908  -6.6898  -6.6524
 -6.6515  -6.6503  -6.6386  -6.6377  -6.6367  -1.6640  -1.4684  -1.4077
 -1.4065  -1.3711  -1.2419  -1.1993  -1.1712  -1.1419  -1.0966  -1.0499
 -1.0420  -1.0291  -1.0009  -0.9927  -0.9668  -0.9595  -0.9464  -0.9396
 -0.8907  -0.8734  -0.8585  -0.8199  -0.7984  -0.7868  -0.7818  -0.7649
 -0.7580  -0.7381  -0.7286  -0.7183  -0.6960  -0.6890  -0.6857  -0.6777
 -0.6750  -0.6623  -0.6539  -0.6466  -0.6345  -0.6308  -0.6169  -0.6134
 -0.6108  -0.6030  -0.5896  -0.5780  -0.5689  -0.5615  -0.5571  -0.5523
 -0.5339  -0.5325  -0.5299  -0.5243  -0.5130  -0.5087  -0.5054  -0.4985
 -0.4866  -0.4832  -0.4777  -0.4759  -0.4730  -0.4625  -0.4537  -0.4433
 -0.4201  -0.3943  -0.3864  -0.3662  -0.3450  -0.3139  -0.2849  -0.2156

          Ground-State Mulliken Net Atomic Charges

     Atom                 Charge (a.u.)
  ----------------------------------------
      1 C                    -0.069241
      2 C                    -0.279096
      3 S                    -0.142963
      4 C                    -0.042087
      5 H                     0.190581
      6 C                    -0.055666
      7 C                     0.225535
      8 C                     0.220687
      9 C                    -0.079662
     10 C                    -0.051419
     11 O                    -0.336300
     12 O                    -0.343180
     13 C                    -0.082626
     14 H                     0.119412
     15 H                     0.091675
     16 H                     0.092804
     17 C                    -0.086296
     18 H                     0.122457
     19 H                     0.090024
     20 H                     0.089034
     21 C                    -0.283832
     22 S                    -0.095141
     23 C                     0.024417
     24 H                     0.206030
     25 C                    -0.185671
     26 S                     0.109684
     27 C                    -0.113356
     28 C                     0.118741
     29 C                    -0.123764
     30 S                     0.059423
     31 C                    -0.153271
     32 C                     0.395536
     33 F                    -0.203834
     34 C                     0.448579
     35 O                    -0.462250
     36 O                    -0.301372
     37 C                    -0.058131
     38 H                     0.121554
     39 H                     0.095244
     40 H                     0.095537
     41 H                     0.222598
     42 H                     0.114375
     43 H                     0.112243
     44 H                     0.182986
  ----------------------------------------
  Sum of atomic charges =     0.000000

                    Cartesian Multipole Moments
 -----------------------------------------------------------------
    Charge (ESU x 10^10)
                -0.0000
    Dipole Moment (Debye)
         X       3.6314      Y       3.9879      Z       3.0396
       Tot       6.1911
    Quadrupole Moments (Debye-Ang)
        XX    -177.4864     XY       5.3933     YY    -198.3351
        XZ       2.7510     YZ      -4.6933     ZZ    -196.4660

 Total job time:  330.02s(wall), 10700.79s(cpu)
        *  Thank you very much for using Q-Chem.  Have a nice day.  *
