 Q-Chem 5.4, Q-Chem, Inc., Pleasanton, CA (2021)
 Q-Chem 5.4.0 for Intel X86 EM64T Linux

User input:
--------------------------------------------------------------
$molecule
0 1
C	0.095966	-8.517702	-0.306235
C	-0.082807	-7.641575	0.754415
S	0.348635	-7.638634	-1.833702
C	-0.017401	-6.264785	0.383675
H	-0.259008	-7.966081	1.787757
C	0.231913	-6.072714	-1.020885
C	0.305044	-4.787049	-1.579097
C	-0.196549	-5.162801	1.268082
C	-0.127606	-3.874817	0.708796
C	0.124792	-3.683952	-0.696769
O	-0.397867	-5.499772	2.572378
O	0.506103	-4.459055	-2.889532
C	1.267335	-5.329063	-3.718420
H	1.502804	-4.755694	-4.635204
H	0.697471	-6.238095	-4.010790
H	2.215194	-5.637262	-3.226506
C	-0.999238	-4.572261	3.467415
H	-1.230649	-5.139743	4.388648
H	-1.940905	-4.153131	3.052323
H	-0.311543	-3.739531	3.730819
C	0.187323	-2.306654	-1.064366
S	-0.257128	-2.306501	1.521154
C	-0.000000	-1.435185	-0.000000
H	0.365903	-1.978138	-2.095939
C	0.000000	0.000000	0.000000
S	0.157577	0.890937	1.507541
C	0.429889	2.439720	0.718873
C	0.157797	0.890576	-1.067872
C	0.396915	2.260004	-0.686410
S	0.118307	0.650207	-2.805516
C	0.417036	2.376229	-3.054530
C	0.537616	3.074202	-1.862551
F	0.764992	4.391378	-1.819088
C	0.496696	2.817118	-4.456084
O	0.370874	2.057582	-5.406510
O	0.723861	4.148418	-4.569225
C	0.814976	4.635075	-5.916207
H	0.999286	5.720591	-5.833064
H	-0.125909	4.442226	-6.470168
H	1.645504	4.140465	-6.459293
H	0.588993	3.350182	1.306486
H	-0.791346	-9.143623	-0.457736
H	0.979708	-9.149441	-0.158056
H	-1.064830	-1.443175	-0.180205
$end

$rem
JOBTYPE		SP
EXCHANGE	HF
CORRELATION	pRIMP2
BASIS		cc-pvtz
METHOD		rimp2
AUX_BASIS	rimp2-cc-pvtz
SOLVENT_METHOD	PCM
PURECART	11111
SYMMETRY	false
MEM_TOTAL	110000
SCF_CONVERGENCE = 6
THRESH=10
GUI = 2
$end

$solvent
dielectric 4.90
$end
--------------------------------------------------------------

             Standard Nuclear Orientation (Angstroms)
    I     Atom           X                Y                Z
 ----------------------------------------------------------------
    1      C       0.0959660000    -8.5177020000    -0.3062350000
    2      C      -0.0828070000    -7.6415750000     0.7544150000
    3      S       0.3486350000    -7.6386340000    -1.8337020000
    4      C      -0.0174010000    -6.2647850000     0.3836750000
    5      H      -0.2590080000    -7.9660810000     1.7877570000
    6      C       0.2319130000    -6.0727140000    -1.0208850000
    7      C       0.3050440000    -4.7870490000    -1.5790970000
    8      C      -0.1965490000    -5.1628010000     1.2680820000
    9      C      -0.1276060000    -3.8748170000     0.7087960000
   10      C       0.1247920000    -3.6839520000    -0.6967690000
   11      O      -0.3978670000    -5.4997720000     2.5723780000
   12      O       0.5061030000    -4.4590550000    -2.8895320000
   13      C       1.2673350000    -5.3290630000    -3.7184200000
   14      H       1.5028040000    -4.7556940000    -4.6352040000
   15      H       0.6974710000    -6.2380950000    -4.0107900000
   16      H       2.2151940000    -5.6372620000    -3.2265060000
   17      C      -0.9992380000    -4.5722610000     3.4674150000
   18      H      -1.2306490000    -5.1397430000     4.3886480000
   19      H      -1.9409050000    -4.1531310000     3.0523230000
   20      H      -0.3115430000    -3.7395310000     3.7308190000
   21      C       0.1873230000    -2.3066540000    -1.0643660000
   22      S      -0.2571280000    -2.3065010000     1.5211540000
   23      C       0.0000000000    -1.4351850000     0.0000000000
   24      H       0.3659030000    -1.9781380000    -2.0959390000
   25      C       0.0000000000     0.0000000000     0.0000000000
   26      S       0.1575770000     0.8909370000     1.5075410000
   27      C       0.4298890000     2.4397200000     0.7188730000
   28      C       0.1577970000     0.8905760000    -1.0678720000
   29      C       0.3969150000     2.2600040000    -0.6864100000
   30      S       0.1183070000     0.6502070000    -2.8055160000
   31      C       0.4170360000     2.3762290000    -3.0545300000
   32      C       0.5376160000     3.0742020000    -1.8625510000
   33      F       0.7649920000     4.3913780000    -1.8190880000
   34      C       0.4966960000     2.8171180000    -4.4560840000
   35      O       0.3708740000     2.0575820000    -5.4065100000
   36      O       0.7238610000     4.1484180000    -4.5692250000
   37      C       0.8149760000     4.6350750000    -5.9162070000
   38      H       0.9992860000     5.7205910000    -5.8330640000
   39      H      -0.1259090000     4.4422260000    -6.4701680000
   40      H       1.6455040000     4.1404650000    -6.4592930000
   41      H       0.5889930000     3.3501820000     1.3064860000
   42      H      -0.7913460000    -9.1436230000    -0.4577360000
   43      H       0.9797080000    -9.1494410000    -0.1580560000
   44      H      -1.0648300000    -1.4431750000    -0.1802050000
 ----------------------------------------------------------------

   11   -2755.3400764186      8.67e-07  Convergence criterion met
 Total energy in the final basis set =    -2755.3400764186
        RIMP2         total energy =     -2760.4315292099 a.u.

                    Orbital Energies (a.u.)
 --------------------------------------------------------------

 Alpha MOs
 -- Occupied --
-92.0149 -91.9966 -91.9831 -91.9595 -26.3428 -20.6150 -20.5895 -20.5876
-20.5615 -11.4095 -11.3815 -11.3115 -11.3112 -11.3101 -11.2999 -11.2982
-11.2920 -11.2889 -11.2862 -11.2860 -11.2846 -11.2846 -11.2827 -11.2746
-11.2741 -11.2611 -11.2599 -11.2511 -11.2404  -9.0135  -8.9968  -8.9853
 -8.9620  -6.6943  -6.6937  -6.6932  -6.6779  -6.6771  -6.6760  -6.6664
 -6.6655  -6.6643  -6.6433  -6.6423  -6.6413  -1.6598  -1.4674  -1.4128
 -1.4095  -1.3701  -1.2302  -1.2034  -1.1756  -1.1374  -1.1018  -1.0485
 -1.0452  -1.0234  -1.0048  -0.9996  -0.9631  -0.9595  -0.9499  -0.9409
 -0.8959  -0.8710  -0.8649  -0.8088  -0.8022  -0.7903  -0.7847  -0.7691
 -0.7569  -0.7382  -0.7247  -0.7111  -0.6996  -0.6932  -0.6848  -0.6816
 -0.6739  -0.6640  -0.6575  -0.6495  -0.6395  -0.6319  -0.6214  -0.6158
 -0.6122  -0.5983  -0.5938  -0.5771  -0.5718  -0.5655  -0.5605  -0.5536
 -0.5478  -0.5361  -0.5313  -0.5290  -0.5142  -0.5099  -0.5088  -0.5020
 -0.4854  -0.4824  -0.4771  -0.4736  -0.4704  -0.4663  -0.4619  -0.4484
 -0.4340  -0.3946  -0.3876  -0.3721  -0.3502  -0.2985  -0.2892  -0.2184

          Ground-State Mulliken Net Atomic Charges

     Atom                 Charge (a.u.)
  ----------------------------------------
      1 C                    -0.070721
      2 C                    -0.251350
      3 S                    -0.132531
      4 C                    -0.050783
      5 H                     0.194551
      6 C                    -0.049198
      7 C                     0.224237
      8 C                     0.235311
      9 C                    -0.075500
     10 C                    -0.031473
     11 O                    -0.333591
     12 O                    -0.343815
     13 C                    -0.083485
     14 H                     0.121410
     15 H                     0.092692
     16 H                     0.092922
     17 C                    -0.088867
     18 H                     0.125209
     19 H                     0.093422
     20 H                     0.090353
     21 C                    -0.330933
     22 S                    -0.096781
     23 C                     0.149128
     24 H                     0.196538
     25 C                    -0.050350
     26 S                     0.079211
     27 C                    -0.222348
     28 C                     0.010226
     29 C                    -0.115497
     30 S                    -0.010573
     31 C                    -0.164512
     32 C                     0.409987
     33 F                    -0.207560
     34 C                     0.442859
     35 O                    -0.460848
     36 O                    -0.300489
     37 C                    -0.058746
     38 H                     0.121558
     39 H                     0.095180
     40 H                     0.095179
     41 H                     0.217199
     42 H                     0.118666
     43 H                     0.116365
     44 H                     0.207746
  ----------------------------------------
  Sum of atomic charges =     0.000000

                    Cartesian Multipole Moments
 -----------------------------------------------------------------
    Charge (ESU x 10^10)
                 0.0000
    Dipole Moment (Debye)
         X      -0.3092      Y       1.4427      Z       3.2184
       Tot       3.5405
    Quadrupole Moments (Debye-Ang)
        XX    -197.1126     XY       3.3961     YY    -169.9440
        XZ      -9.2884     YZ     -11.9147     ZZ    -192.1323

 Total job time:  362.00s(wall), 11152.60s(cpu)
        *  Thank you very much for using Q-Chem.  Have a nice day.  *
