 Q-Chem 5.4, Q-Chem, Inc., Pleasanton, CA (2021)
 Q-Chem 5.4.0 for Intel X86 EM64T Linux

User input:
--------------------------------------------------------------
$molecule
0 1
C	0.318247	-8.517702	0.041330
C	-0.757333	-7.641575	0.049453
S	1.866383	-7.638634	0.024919
C	-0.380867	-6.264785	0.049488
H	-1.805573	-7.966081	0.055368
C	1.045647	-6.072714	0.051115
C	1.608077	-4.787049	0.026203
C	-1.282948	-5.162801	0.026637
C	-0.720187	-3.874817	-0.002586
C	0.707853	-3.683952	0.001903
O	-2.602386	-5.499772	0.054867
O	2.933517	-4.459055	-0.003348
C	3.881999	-5.329063	0.602384
H	4.825744	-4.755694	0.675079
H	4.070972	-6.238095	-0.009592
H	3.562152	-5.637262	1.621263
C	-3.588253	-4.572261	-0.381947
H	-4.535674	-5.139743	-0.449872
H	-3.342986	-4.153131	-1.381388
H	-3.728239	-3.739531	0.341040
C	1.080725	-2.306654	-0.000348
S	-1.542694	-2.306501	0.010924
C	-0.000000	-1.435185	-0.000000
H	2.127635	-1.978138	-0.003612
C	0.000000	0.000000	0.000000
S	0.079327	0.901280	1.507541
C	0.215617	2.467903	0.718873
C	0.079577	0.900940	-1.067872
C	0.198433	2.285998	-0.686410
S	0.061187	0.658044	-2.805516
C	0.208347	2.403534	-3.054530
C	0.267636	3.109360	-1.862551
F	0.379347	4.441341	-1.819088
C	0.249278	2.849688	-4.456084
O	0.190132	2.082076	-5.406510
O	0.359548	4.195721	-4.569225
C	0.407901	4.688467	-5.916207
H	0.496901	5.785916	-5.833064
H	-0.512596	4.414348	-6.470168
H	1.278377	4.268124	-6.459293
H	0.294764	3.388767	1.306486
H	0.313367	-9.143623	-0.858809
H	0.325780	-9.149441	0.937378
H	-0.007439	-1.443175	-1.079945
$end

$rem
JOBTYPE		SP
EXCHANGE	HF
CORRELATION	pRIMP2
BASIS		cc-pvtz
METHOD		rimp2
AUX_BASIS	rimp2-cc-pvtz
SOLVENT_METHOD	PCM
PURECART	11111
SYMMETRY	false
MEM_TOTAL	110000
SCF_CONVERGENCE = 6
THRESH=10
GUI = 2
$end

$solvent
dielectric 4.90
$end
--------------------------------------------------------------

             Standard Nuclear Orientation (Angstroms)
    I     Atom           X                Y                Z
 ----------------------------------------------------------------
    1      C       0.3182470000    -8.5177020000     0.0413300000
    2      C      -0.7573330000    -7.6415750000     0.0494530000
    3      S       1.8663830000    -7.6386340000     0.0249190000
    4      C      -0.3808670000    -6.2647850000     0.0494880000
    5      H      -1.8055730000    -7.9660810000     0.0553680000
    6      C       1.0456470000    -6.0727140000     0.0511150000
    7      C       1.6080770000    -4.7870490000     0.0262030000
    8      C      -1.2829480000    -5.1628010000     0.0266370000
    9      C      -0.7201870000    -3.8748170000    -0.0025860000
   10      C       0.7078530000    -3.6839520000     0.0019030000
   11      O      -2.6023860000    -5.4997720000     0.0548670000
   12      O       2.9335170000    -4.4590550000    -0.0033480000
   13      C       3.8819990000    -5.3290630000     0.6023840000
   14      H       4.8257440000    -4.7556940000     0.6750790000
   15      H       4.0709720000    -6.2380950000    -0.0095920000
   16      H       3.5621520000    -5.6372620000     1.6212630000
   17      C      -3.5882530000    -4.5722610000    -0.3819470000
   18      H      -4.5356740000    -5.1397430000    -0.4498720000
   19      H      -3.3429860000    -4.1531310000    -1.3813880000
   20      H      -3.7282390000    -3.7395310000     0.3410400000
   21      C       1.0807250000    -2.3066540000    -0.0003480000
   22      S      -1.5426940000    -2.3065010000     0.0109240000
   23      C       0.0000000000    -1.4351850000     0.0000000000
   24      H       2.1276350000    -1.9781380000    -0.0036120000
   25      C       0.0000000000     0.0000000000     0.0000000000
   26      S       0.0793270000     0.9012800000     1.5075410000
   27      C       0.2156170000     2.4679030000     0.7188730000
   28      C       0.0795770000     0.9009400000    -1.0678720000
   29      C       0.1984330000     2.2859980000    -0.6864100000
   30      S       0.0611870000     0.6580440000    -2.8055160000
   31      C       0.2083470000     2.4035340000    -3.0545300000
   32      C       0.2676360000     3.1093600000    -1.8625510000
   33      F       0.3793470000     4.4413410000    -1.8190880000
   34      C       0.2492780000     2.8496880000    -4.4560840000
   35      O       0.1901320000     2.0820760000    -5.4065100000
   36      O       0.3595480000     4.1957210000    -4.5692250000
   37      C       0.4079010000     4.6884670000    -5.9162070000
   38      H       0.4969010000     5.7859160000    -5.8330640000
   39      H      -0.5125960000     4.4143480000    -6.4701680000
   40      H       1.2783770000     4.2681240000    -6.4592930000
   41      H       0.2947640000     3.3887670000     1.3064860000
   42      H       0.3133670000    -9.1436230000    -0.8588090000
   43      H       0.3257800000    -9.1494410000     0.9373780000
   44      H      -0.0074390000    -1.4431750000    -1.0799450000
 ----------------------------------------------------------------

   11   -2755.3483070035      6.76e-07  Convergence criterion met
 Total energy in the final basis set =    -2755.3483070035
        RIMP2         total energy =     -2760.4358159215 a.u.

                    Orbital Energies (a.u.)
 --------------------------------------------------------------

 Alpha MOs
 -- Occupied --
-92.0114 -92.0001 -91.9763 -91.9582 -26.3445 -20.6153 -20.5871 -20.5866
-20.5618 -11.4101 -11.3841 -11.3117 -11.3089 -11.3069 -11.3045 -11.3011
-11.2987 -11.2892 -11.2851 -11.2841 -11.2828 -11.2824 -11.2801 -11.2729
-11.2715 -11.2580 -11.2576 -11.2497 -11.2369  -9.0103  -9.0003  -8.9785
 -8.9608  -6.6910  -6.6904  -6.6900  -6.6813  -6.6806  -6.6795  -6.6596
 -6.6588  -6.6575  -6.6420  -6.6411  -6.6401  -1.6615  -1.4678  -1.4101
 -1.4088  -1.3705  -1.2295  -1.2023  -1.1733  -1.1369  -1.1008  -1.0466
 -1.0453  -1.0235  -1.0033  -0.9968  -0.9627  -0.9585  -0.9484  -0.9413
 -0.8930  -0.8711  -0.8649  -0.8136  -0.7954  -0.7900  -0.7845  -0.7680
 -0.7589  -0.7352  -0.7263  -0.7102  -0.7010  -0.6947  -0.6853  -0.6797
 -0.6744  -0.6650  -0.6553  -0.6484  -0.6347  -0.6304  -0.6200  -0.6148
 -0.6112  -0.5991  -0.5922  -0.5777  -0.5703  -0.5649  -0.5576  -0.5543
 -0.5489  -0.5316  -0.5300  -0.5257  -0.5129  -0.5087  -0.5070  -0.5015
 -0.4854  -0.4809  -0.4763  -0.4745  -0.4712  -0.4676  -0.4604  -0.4460
 -0.4217  -0.4012  -0.3850  -0.3700  -0.3505  -0.3023  -0.2892  -0.2210

          Ground-State Mulliken Net Atomic Charges

     Atom                 Charge (a.u.)
  ----------------------------------------
      1 C                    -0.070229
      2 C                    -0.259048
      3 S                    -0.135312
      4 C                    -0.044403
      5 H                     0.193569
      6 C                    -0.052440
      7 C                     0.226450
      8 C                     0.227972
      9 C                    -0.082703
     10 C                    -0.064037
     11 O                    -0.335186
     12 O                    -0.343162
     13 C                    -0.082581
     14 H                     0.120001
     15 H                     0.092004
     16 H                     0.092555
     17 C                    -0.086448
     18 H                     0.122799
     19 H                     0.092741
     20 H                     0.090218
     21 C                    -0.229747
     22 S                    -0.070779
     23 C                     0.060720
     24 H                     0.205699
     25 C                    -0.090451
     26 S                     0.088081
     27 C                    -0.178041
     28 C                     0.018634
     29 C                    -0.112709
     30 S                     0.000468
     31 C                    -0.160618
     32 C                     0.400363
     33 F                    -0.205790
     34 C                     0.444016
     35 O                    -0.461317
     36 O                    -0.300790
     37 C                    -0.058668
     38 H                     0.121510
     39 H                     0.095283
     40 H                     0.095183
     41 H                     0.217511
     42 H                     0.117413
     43 H                     0.114951
     44 H                     0.186318
  ----------------------------------------
  Sum of atomic charges =     0.000000

                    Cartesian Multipole Moments
 -----------------------------------------------------------------
    Charge (ESU x 10^10)
                -0.0000
    Dipole Moment (Debye)
         X       0.1299      Y       2.9514      Z       2.3729
       Tot       3.7892
    Quadrupole Moments (Debye-Ang)
        XX    -185.2837     XY       5.1551     YY    -174.4645
        XZ       5.1282     YZ      -7.6740     ZZ    -204.5067

 Total job time:  322.21s(wall), 10362.38s(cpu)
        *  Thank you very much for using Q-Chem.  Have a nice day.  *
