 Q-Chem 5.4, Q-Chem, Inc., Pleasanton, CA (2021)
 Q-Chem 5.4.0 for Intel X86 EM64T Linux

User input:
--------------------------------------------------------------
$molecule
0 1
C	0.313191	-8.517702	-0.070009
C	-0.694746	-7.641575	0.305494
S	1.762350	-7.638634	-0.614924
C	-0.340973	-6.264785	0.176768
H	-1.677747	-7.966081	0.669571
C	1.000069	-6.072714	-0.309600
C	1.520060	-4.787049	-0.525372
C	-1.196466	-5.162801	0.463825
C	-0.677639	-3.874817	0.243888
C	0.665815	-3.683952	-0.240312
O	-2.426678	-5.499772	0.941626
O	2.755460	-4.459055	-1.006468
C	3.853913	-5.329063	-0.761666
H	4.765607	-4.755694	-1.016135
H	3.822182	-6.238095	-1.401368
H	3.901833	-5.637262	0.305161
C	-3.502489	-4.572261	0.868342
H	-4.416005	-5.139743	1.128551
H	-3.613841	-4.153131	-0.154712
H	-3.386756	-3.739531	1.595605
C	1.015430	-2.306654	-0.369957
S	-1.445922	-2.306501	0.537898
C	-0.000000	-1.435185	-0.000000
H	1.998088	-1.978138	-0.731088
C	0.000000	0.000000	0.000000
S	0.783786	0.451972	1.507541
C	2.145261	1.238908	0.718873
C	0.783650	0.451572	-1.067872
C	1.986396	1.148648	-0.686410
S	0.574133	0.327317	-2.805516
C	2.088363	1.207943	-3.054530
C	2.700548	1.564221	-1.862551
F	3.855718	2.236706	-1.819088
C	2.477307	1.430318	-4.456084
O	1.814592	1.038482	-5.406510
O	3.643162	2.112042	-4.569225
C	4.074530	2.355061	-5.916207
H	5.024556	2.911627	-5.833064
H	3.322010	2.951860	-6.470168
H	4.229490	1.400910	-6.459293
H	2.944986	1.702260	1.306486
H	0.000738	-9.143623	-0.914194
H	0.626735	-9.149441	0.769424
H	-0.376353	-1.443175	-1.012272
$end

$rem
JOBTYPE		SP
EXCHANGE	HF
CORRELATION	pRIMP2
BASIS		cc-pvtz
METHOD		rimp2
AUX_BASIS	rimp2-cc-pvtz
SOLVENT_METHOD	PCM
PURECART	11111
SYMMETRY	false
MEM_TOTAL	110000
SCF_CONVERGENCE = 6
THRESH=10
GUI = 2
$end

$solvent
dielectric 4.90
$end
--------------------------------------------------------------

             Standard Nuclear Orientation (Angstroms)
    I     Atom           X                Y                Z
 ----------------------------------------------------------------
    1      C       0.3131910000    -8.5177020000    -0.0700090000
    2      C      -0.6947460000    -7.6415750000     0.3054940000
    3      S       1.7623500000    -7.6386340000    -0.6149240000
    4      C      -0.3409730000    -6.2647850000     0.1767680000
    5      H      -1.6777470000    -7.9660810000     0.6695710000
    6      C       1.0000690000    -6.0727140000    -0.3096000000
    7      C       1.5200600000    -4.7870490000    -0.5253720000
    8      C      -1.1964660000    -5.1628010000     0.4638250000
    9      C      -0.6776390000    -3.8748170000     0.2438880000
   10      C       0.6658150000    -3.6839520000    -0.2403120000
   11      O      -2.4266780000    -5.4997720000     0.9416260000
   12      O       2.7554600000    -4.4590550000    -1.0064680000
   13      C       3.8539130000    -5.3290630000    -0.7616660000
   14      H       4.7656070000    -4.7556940000    -1.0161350000
   15      H       3.8221820000    -6.2380950000    -1.4013680000
   16      H       3.9018330000    -5.6372620000     0.3051610000
   17      C      -3.5024890000    -4.5722610000     0.8683420000
   18      H      -4.4160050000    -5.1397430000     1.1285510000
   19      H      -3.6138410000    -4.1531310000    -0.1547120000
   20      H      -3.3867560000    -3.7395310000     1.5956050000
   21      C       1.0154300000    -2.3066540000    -0.3699570000
   22      S      -1.4459220000    -2.3065010000     0.5378980000
   23      C       0.0000000000    -1.4351850000     0.0000000000
   24      H       1.9980880000    -1.9781380000    -0.7310880000
   25      C       0.0000000000     0.0000000000     0.0000000000
   26      S       0.7837860000     0.4519720000     1.5075410000
   27      C       2.1452610000     1.2389080000     0.7188730000
   28      C       0.7836500000     0.4515720000    -1.0678720000
   29      C       1.9863960000     1.1486480000    -0.6864100000
   30      S       0.5741330000     0.3273170000    -2.8055160000
   31      C       2.0883630000     1.2079430000    -3.0545300000
   32      C       2.7005480000     1.5642210000    -1.8625510000
   33      F       3.8557180000     2.2367060000    -1.8190880000
   34      C       2.4773070000     1.4303180000    -4.4560840000
   35      O       1.8145920000     1.0384820000    -5.4065100000
   36      O       3.6431620000     2.1120420000    -4.5692250000
   37      C       4.0745300000     2.3550610000    -5.9162070000
   38      H       5.0245560000     2.9116270000    -5.8330640000
   39      H       3.3220100000     2.9518600000    -6.4701680000
   40      H       4.2294900000     1.4009100000    -6.4592930000
   41      H       2.9449860000     1.7022600000     1.3064860000
   42      H       0.0007380000    -9.1436230000    -0.9141940000
   43      H       0.6267350000    -9.1494410000     0.7694240000
   44      H      -0.3763530000    -1.4431750000    -1.0122720000
 ----------------------------------------------------------------

   11   -2755.2839422511      7.01e-07  Convergence criterion met
 Total energy in the final basis set =    -2755.2839422511
        RIMP2         total energy =     -2760.3854910004 a.u.

                    Orbital Energies (a.u.)
 --------------------------------------------------------------

 Alpha MOs
 -- Occupied --
-92.0128 -92.0091 -91.9686 -91.9564 -26.3483 -20.6168 -20.5863 -20.5839
-20.5634 -11.4122 -11.3897 -11.3370 -11.3234 -11.3075 -11.3021 -11.3012
-11.2905 -11.2902 -11.2824 -11.2821 -11.2789 -11.2733 -11.2703 -11.2696
-11.2685 -11.2559 -11.2539 -11.2477 -11.2325  -9.0124  -9.0091  -8.9710
 -8.9590  -6.6933  -6.6926  -6.6916  -6.6897  -6.6887  -6.6886  -6.6521
 -6.6512  -6.6500  -6.6403  -6.6393  -6.6383  -1.6653  -1.4694  -1.4085
 -1.4068  -1.3722  -1.2433  -1.1993  -1.1718  -1.1420  -1.0997  -1.0517
 -1.0429  -1.0281  -1.0005  -0.9942  -0.9657  -0.9589  -0.9483  -0.9417
 -0.8907  -0.8744  -0.8591  -0.8168  -0.7990  -0.7906  -0.7813  -0.7660
 -0.7607  -0.7343  -0.7299  -0.7144  -0.7015  -0.6931  -0.6870  -0.6795
 -0.6759  -0.6671  -0.6542  -0.6470  -0.6383  -0.6294  -0.6182  -0.6150
 -0.6106  -0.6029  -0.5925  -0.5758  -0.5727  -0.5662  -0.5562  -0.5550
 -0.5429  -0.5326  -0.5263  -0.5203  -0.5136  -0.5096  -0.5055  -0.4993
 -0.4874  -0.4819  -0.4772  -0.4746  -0.4673  -0.4643  -0.4557  -0.4434
 -0.4160  -0.3977  -0.3803  -0.3676  -0.3533  -0.3146  -0.2862  -0.2168

          Ground-State Mulliken Net Atomic Charges

     Atom                 Charge (a.u.)
  ----------------------------------------
      1 C                    -0.069305
      2 C                    -0.272250
      3 S                    -0.139776
      4 C                    -0.040418
      5 H                     0.191856
      6 C                    -0.051510
      7 C                     0.223130
      8 C                     0.220647
      9 C                    -0.073845
     10 C                    -0.052442
     11 O                    -0.336451
     12 O                    -0.344460
     13 C                    -0.082846
     14 H                     0.119083
     15 H                     0.092416
     16 H                     0.092496
     17 C                    -0.086515
     18 H                     0.122560
     19 H                     0.091292
     20 H                     0.090235
     21 C                    -0.264482
     22 S                    -0.110309
     23 C                     0.084786
     24 H                     0.205113
     25 C                    -0.202598
     26 S                     0.098630
     27 C                    -0.110570
     28 C                     0.042586
     29 C                    -0.118005
     30 S                     0.061016
     31 C                    -0.152932
     32 C                     0.406681
     33 F                    -0.203084
     34 C                     0.448591
     35 O                    -0.461231
     36 O                    -0.301246
     37 C                    -0.058024
     38 H                     0.121806
     39 H                     0.095535
     40 H                     0.095666
     41 H                     0.221000
     42 H                     0.115750
     43 H                     0.113290
     44 H                     0.178134
  ----------------------------------------
  Sum of atomic charges =     0.000000

                    Cartesian Multipole Moments
 -----------------------------------------------------------------
    Charge (ESU x 10^10)
                 0.0000
    Dipole Moment (Debye)
         X       3.6495      Y       3.4086      Z       1.8102
       Tot       5.3117
    Quadrupole Moments (Debye-Ang)
        XX    -170.1390     XY      11.1725     YY    -193.2022
        XZ      -6.6628     YZ      -5.0159     ZZ    -204.0607

 Total job time:  331.06s(wall), 10762.27s(cpu)
        *  Thank you very much for using Q-Chem.  Have a nice day.  *
