 Q-Chem 5.4, Q-Chem, Inc., Pleasanton, CA (2021)
 Q-Chem 5.4.0 for Intel X86 EM64T Linux

User input:
--------------------------------------------------------------
$molecule
0 1
C	-0.147685	-8.517702	0.284919
C	0.212552	-7.641575	-0.728574
S	-0.661757	-7.638634	1.745304
C	0.083761	-6.264785	-0.374824
H	0.565513	-7.966081	-1.715621
C	-0.405665	-6.072714	0.965104
C	-0.574617	-4.787049	1.502136
C	0.413763	-5.162801	-1.214687
C	0.248748	-3.874817	-0.675870
C	-0.243888	-3.683952	0.664513
O	0.838511	-5.499772	-2.464209
O	-1.000176	-4.459055	2.757750
C	-1.893778	-5.329063	3.441858
H	-2.284868	-4.755694	4.303826
H	-1.383341	-6.238095	3.828743
H	-2.741817	-5.637262	2.792824
C	1.586168	-4.572261	-3.241222
H	1.974033	-5.139743	-4.108274
H	2.441448	-4.153131	-2.668916
H	0.954660	-3.739531	-3.620041
C	-0.369302	-2.306654	1.015668
S	0.517367	-2.306501	-1.453394
C	-0.000000	-1.435185	-0.000000
H	-0.724300	-1.978138	2.000559
C	0.000000	0.000000	0.000000
S	0.783786	0.451972	1.507541
C	2.145261	1.238908	0.718873
C	0.783650	0.451572	-1.067872
C	1.986396	1.148648	-0.686410
S	0.574133	0.327317	-2.805516
C	2.088363	1.207943	-3.054530
C	2.700548	1.564221	-1.862551
F	3.855718	2.236706	-1.819088
C	2.477307	1.430318	-4.456084
O	1.814592	1.038482	-5.406510
O	3.643162	2.112042	-4.569225
C	4.074530	2.355061	-5.916207
H	5.024556	2.911627	-5.833064
H	3.322010	2.951860	-6.470168
H	4.229490	1.400910	-6.459293
H	2.944986	1.702260	1.306486
H	0.699838	-9.143623	0.588198
H	-0.992270	-9.149441	-0.014470
H	1.017360	-1.443175	0.362373
$end

$rem
JOBTYPE		SP
EXCHANGE	HF
CORRELATION	pRIMP2
BASIS		cc-pvtz
METHOD		rimp2
AUX_BASIS	rimp2-cc-pvtz
SOLVENT_METHOD	PCM
PURECART	11111
SYMMETRY	false
MEM_TOTAL	110000
SCF_CONVERGENCE = 6
THRESH=10
GUI = 2
$end

$solvent
dielectric 4.90
$end
--------------------------------------------------------------

             Standard Nuclear Orientation (Angstroms)
    I     Atom           X                Y                Z
 ----------------------------------------------------------------
    1      C      -0.1476850000    -8.5177020000     0.2849190000
    2      C       0.2125520000    -7.6415750000    -0.7285740000
    3      S      -0.6617570000    -7.6386340000     1.7453040000
    4      C       0.0837610000    -6.2647850000    -0.3748240000
    5      H       0.5655130000    -7.9660810000    -1.7156210000
    6      C      -0.4056650000    -6.0727140000     0.9651040000
    7      C      -0.5746170000    -4.7870490000     1.5021360000
    8      C       0.4137630000    -5.1628010000    -1.2146870000
    9      C       0.2487480000    -3.8748170000    -0.6758700000
   10      C      -0.2438880000    -3.6839520000     0.6645130000
   11      O       0.8385110000    -5.4997720000    -2.4642090000
   12      O      -1.0001760000    -4.4590550000     2.7577500000
   13      C      -1.8937780000    -5.3290630000     3.4418580000
   14      H      -2.2848680000    -4.7556940000     4.3038260000
   15      H      -1.3833410000    -6.2380950000     3.8287430000
   16      H      -2.7418170000    -5.6372620000     2.7928240000
   17      C       1.5861680000    -4.5722610000    -3.2412220000
   18      H       1.9740330000    -5.1397430000    -4.1082740000
   19      H       2.4414480000    -4.1531310000    -2.6689160000
   20      H       0.9546600000    -3.7395310000    -3.6200410000
   21      C      -0.3693020000    -2.3066540000     1.0156680000
   22      S       0.5173670000    -2.3065010000    -1.4533940000
   23      C       0.0000000000    -1.4351850000     0.0000000000
   24      H      -0.7243000000    -1.9781380000     2.0005590000
   25      C       0.0000000000     0.0000000000     0.0000000000
   26      S       0.7837860000     0.4519720000     1.5075410000
   27      C       2.1452610000     1.2389080000     0.7188730000
   28      C       0.7836500000     0.4515720000    -1.0678720000
   29      C       1.9863960000     1.1486480000    -0.6864100000
   30      S       0.5741330000     0.3273170000    -2.8055160000
   31      C       2.0883630000     1.2079430000    -3.0545300000
   32      C       2.7005480000     1.5642210000    -1.8625510000
   33      F       3.8557180000     2.2367060000    -1.8190880000
   34      C       2.4773070000     1.4303180000    -4.4560840000
   35      O       1.8145920000     1.0384820000    -5.4065100000
   36      O       3.6431620000     2.1120420000    -4.5692250000
   37      C       4.0745300000     2.3550610000    -5.9162070000
   38      H       5.0245560000     2.9116270000    -5.8330640000
   39      H       3.3220100000     2.9518600000    -6.4701680000
   40      H       4.2294900000     1.4009100000    -6.4592930000
   41      H       2.9449860000     1.7022600000     1.3064860000
   42      H       0.6998380000    -9.1436230000     0.5881980000
   43      H      -0.9922700000    -9.1494410000    -0.0144700000
   44      H       1.0173600000    -1.4431750000     0.3623730000
 ----------------------------------------------------------------

   11   -2755.2635129293      7.41e-07  Convergence criterion met
 Total energy in the final basis set =    -2755.2635129293
        RIMP2         total energy =     -2760.3753196649 a.u.

                    Orbital Energies (a.u.)
 --------------------------------------------------------------

 Alpha MOs
 -- Occupied --
-92.0066 -92.0037 -91.9716 -91.9578 -26.3454 -20.6160 -20.5865 -20.5861
-20.5627 -11.4110 -11.3853 -11.3301 -11.3108 -11.3077 -11.3067 -11.2993
-11.2897 -11.2892 -11.2831 -11.2825 -11.2816 -11.2773 -11.2754 -11.2718
-11.2649 -11.2574 -11.2552 -11.2496 -11.2372  -9.0074  -9.0039  -8.9743
 -8.9604  -6.6880  -6.6871  -6.6868  -6.6847  -6.6840  -6.6830  -6.6552
 -6.6544  -6.6530  -6.6416  -6.6407  -6.6397  -1.6625  -1.4685  -1.4095
 -1.4082  -1.3713  -1.2456  -1.1987  -1.1739  -1.1422  -1.0985  -1.0510
 -1.0436  -1.0300  -1.0013  -0.9938  -0.9674  -0.9554  -0.9498  -0.9421
 -0.8924  -0.8722  -0.8569  -0.8208  -0.7945  -0.7873  -0.7811  -0.7682
 -0.7573  -0.7384  -0.7274  -0.7157  -0.6958  -0.6949  -0.6860  -0.6816
 -0.6750  -0.6666  -0.6548  -0.6478  -0.6362  -0.6310  -0.6198  -0.6150
 -0.6104  -0.6027  -0.5916  -0.5791  -0.5709  -0.5681  -0.5590  -0.5556
 -0.5407  -0.5333  -0.5309  -0.5258  -0.5144  -0.5120  -0.5069  -0.5004
 -0.4854  -0.4821  -0.4776  -0.4736  -0.4686  -0.4618  -0.4525  -0.4451
 -0.4270  -0.3875  -0.3829  -0.3675  -0.3530  -0.3032  -0.2861  -0.2152

          Ground-State Mulliken Net Atomic Charges

     Atom                 Charge (a.u.)
  ----------------------------------------
      1 C                    -0.070504
      2 C                    -0.257568
      3 S                    -0.136822
      4 C                    -0.049297
      5 H                     0.193656
      6 C                    -0.051458
      7 C                     0.218410
      8 C                     0.228326
      9 C                    -0.071510
     10 C                    -0.028475
     11 O                    -0.334851
     12 O                    -0.343386
     13 C                    -0.082938
     14 H                     0.119567
     15 H                     0.091673
     16 H                     0.092962
     17 C                    -0.088225
     18 H                     0.123656
     19 H                     0.090869
     20 H                     0.092841
     21 C                    -0.326918
     22 S                    -0.100846
     23 C                     0.121367
     24 H                     0.198075
     25 C                    -0.131543
     26 S                     0.072576
     27 C                    -0.135082
     28 C                     0.014668
     29 C                    -0.100545
     30 S                     0.051498
     31 C                    -0.150759
     32 C                     0.394105
     33 F                    -0.205746
     34 C                     0.447475
     35 O                    -0.460752
     36 O                    -0.300710
     37 C                    -0.058261
     38 H                     0.121647
     39 H                     0.095486
     40 H                     0.095117
     41 H                     0.220409
     42 H                     0.117416
     43 H                     0.115194
     44 H                     0.169205
  ----------------------------------------
  Sum of atomic charges =     0.000000

                    Cartesian Multipole Moments
 -----------------------------------------------------------------
    Charge (ESU x 10^10)
                -0.0000
    Dipole Moment (Debye)
         X       3.8730      Y       1.9018      Z       2.3196
       Tot       4.8987
    Quadrupole Moments (Debye-Ang)
        XX    -181.3921     XY       6.6266     YY    -186.7180
        XZ     -15.5816     YZ       0.4379     ZZ    -193.3619

 Total job time:  333.43s(wall), 10814.01s(cpu)
        *  Thank you very much for using Q-Chem.  Have a nice day.  *
