 Q-Chem 5.4, Q-Chem, Inc., Pleasanton, CA (2021)
 Q-Chem 5.4.0 for Intel X86 EM64T Linux

User input:
--------------------------------------------------------------
$molecule
0 1
C	0.070009	-8.517702	0.313191
C	-0.305494	-7.641575	-0.694746
S	0.614924	-7.638634	1.762350
C	-0.176768	-6.264785	-0.340973
H	-0.669571	-7.966081	-1.677747
C	0.309600	-6.072714	1.000069
C	0.525372	-4.787049	1.520060
C	-0.463825	-5.162801	-1.196466
C	-0.243888	-3.874817	-0.677639
C	0.240312	-3.683952	0.665815
O	-0.941626	-5.499772	-2.426678
O	1.006468	-4.459055	2.755460
C	0.761666	-5.329063	3.853913
H	1.016135	-4.755694	4.765607
H	1.401368	-6.238095	3.822182
H	-0.305161	-5.637262	3.901833
C	-0.868342	-4.572261	-3.502489
H	-1.128551	-5.139743	-4.416005
H	0.154712	-4.153131	-3.613841
H	-1.595605	-3.739531	-3.386756
C	0.369957	-2.306654	1.015430
S	-0.537898	-2.306501	-1.445922
C	0.000000	-1.435185	0.000000
H	0.731088	-1.978138	1.998088
C	0.000000	0.000000	0.000000
S	0.452792	0.783312	1.507541
C	1.238397	2.145556	0.718873
C	0.452875	0.782898	-1.067872
C	1.145945	1.987956	-0.686410
S	0.333556	0.570531	-2.805516
C	1.204604	2.090290	-3.054530
C	1.556633	2.704929	-1.862551
F	2.220797	3.864903	-1.819088
C	1.430252	2.477345	-4.456084
O	1.052242	1.806648	-5.406510
O	2.099050	3.650663	-4.569225
C	2.351116	4.076808	-5.916207
H	2.895579	5.033821	-5.833064
H	1.401015	4.217390	-6.470168
H	2.962391	3.327969	-6.459293
H	1.699302	2.946693	1.306486
H	0.914194	-9.143623	0.000738
H	-0.769424	-9.149441	0.626735
H	1.012272	-1.443175	-0.376353
$end

$rem
JOBTYPE		SP
EXCHANGE	HF
CORRELATION	pRIMP2
BASIS		cc-pvtz
METHOD		rimp2
AUX_BASIS	rimp2-cc-pvtz
SOLVENT_METHOD	PCM
PURECART	11111
SYMMETRY	false
MEM_TOTAL	110000
SCF_CONVERGENCE = 6
THRESH=10
GUI = 2
$end

$solvent
dielectric 4.90
$end
--------------------------------------------------------------

             Standard Nuclear Orientation (Angstroms)
    I     Atom           X                Y                Z
 ----------------------------------------------------------------
    1      C       0.0700090000    -8.5177020000     0.3131910000
    2      C      -0.3054940000    -7.6415750000    -0.6947460000
    3      S       0.6149240000    -7.6386340000     1.7623500000
    4      C      -0.1767680000    -6.2647850000    -0.3409730000
    5      H      -0.6695710000    -7.9660810000    -1.6777470000
    6      C       0.3096000000    -6.0727140000     1.0000690000
    7      C       0.5253720000    -4.7870490000     1.5200600000
    8      C      -0.4638250000    -5.1628010000    -1.1964660000
    9      C      -0.2438880000    -3.8748170000    -0.6776390000
   10      C       0.2403120000    -3.6839520000     0.6658150000
   11      O      -0.9416260000    -5.4997720000    -2.4266780000
   12      O       1.0064680000    -4.4590550000     2.7554600000
   13      C       0.7616660000    -5.3290630000     3.8539130000
   14      H       1.0161350000    -4.7556940000     4.7656070000
   15      H       1.4013680000    -6.2380950000     3.8221820000
   16      H      -0.3051610000    -5.6372620000     3.9018330000
   17      C      -0.8683420000    -4.5722610000    -3.5024890000
   18      H      -1.1285510000    -5.1397430000    -4.4160050000
   19      H       0.1547120000    -4.1531310000    -3.6138410000
   20      H      -1.5956050000    -3.7395310000    -3.3867560000
   21      C       0.3699570000    -2.3066540000     1.0154300000
   22      S      -0.5378980000    -2.3065010000    -1.4459220000
   23      C       0.0000000000    -1.4351850000     0.0000000000
   24      H       0.7310880000    -1.9781380000     1.9980880000
   25      C       0.0000000000     0.0000000000     0.0000000000
   26      S       0.4527920000     0.7833120000     1.5075410000
   27      C       1.2383970000     2.1455560000     0.7188730000
   28      C       0.4528750000     0.7828980000    -1.0678720000
   29      C       1.1459450000     1.9879560000    -0.6864100000
   30      S       0.3335560000     0.5705310000    -2.8055160000
   31      C       1.2046040000     2.0902900000    -3.0545300000
   32      C       1.5566330000     2.7049290000    -1.8625510000
   33      F       2.2207970000     3.8649030000    -1.8190880000
   34      C       1.4302520000     2.4773450000    -4.4560840000
   35      O       1.0522420000     1.8066480000    -5.4065100000
   36      O       2.0990500000     3.6506630000    -4.5692250000
   37      C       2.3511160000     4.0768080000    -5.9162070000
   38      H       2.8955790000     5.0338210000    -5.8330640000
   39      H       1.4010150000     4.2173900000    -6.4701680000
   40      H       2.9623910000     3.3279690000    -6.4592930000
   41      H       1.6993020000     2.9466930000     1.3064860000
   42      H       0.9141940000    -9.1436230000     0.0007380000
   43      H      -0.7694240000    -9.1494410000     0.6267350000
   44      H       1.0122720000    -1.4431750000    -0.3763530000
 ----------------------------------------------------------------

   11   -2755.3267368156      7.91e-07  Convergence criterion met
 Total energy in the final basis set =    -2755.3267368156
        RIMP2         total energy =     -2760.4232539383 a.u.

                    Orbital Energies (a.u.)
 --------------------------------------------------------------

 Alpha MOs
 -- Occupied --
-92.0149 -91.9979 -91.9782 -91.9590 -26.3429 -20.6151 -20.5879 -20.5875
-20.5615 -11.4096 -11.3816 -11.3097 -11.3088 -11.3059 -11.3049 -11.2976
-11.2949 -11.2890 -11.2856 -11.2843 -11.2842 -11.2834 -11.2831 -11.2740
-11.2727 -11.2595 -11.2589 -11.2504 -11.2384  -9.0136  -8.9981  -8.9807
 -8.9616  -6.6944  -6.6938  -6.6933  -6.6790  -6.6783  -6.6772  -6.6619
 -6.6610  -6.6597  -6.6428  -6.6419  -6.6409  -1.6600  -1.4675  -1.4109
 -1.4096  -1.3702  -1.2332  -1.2019  -1.1746  -1.1383  -1.1005  -1.0482
 -1.0449  -1.0247  -1.0036  -0.9974  -0.9645  -0.9566  -0.9493  -0.9422
 -0.8941  -0.8702  -0.8632  -0.8165  -0.7923  -0.7897  -0.7843  -0.7691
 -0.7572  -0.7366  -0.7250  -0.7097  -0.6979  -0.6954  -0.6849  -0.6816
 -0.6740  -0.6658  -0.6560  -0.6490  -0.6371  -0.6313  -0.6207  -0.6156
 -0.6111  -0.6001  -0.5939  -0.5766  -0.5708  -0.5656  -0.5595  -0.5558
 -0.5499  -0.5324  -0.5299  -0.5264  -0.5154  -0.5112  -0.5080  -0.5003
 -0.4850  -0.4799  -0.4775  -0.4734  -0.4711  -0.4652  -0.4598  -0.4470
 -0.4319  -0.3978  -0.3815  -0.3718  -0.3504  -0.3017  -0.2865  -0.2168

          Ground-State Mulliken Net Atomic Charges

     Atom                 Charge (a.u.)
  ----------------------------------------
      1 C                    -0.070369
      2 C                    -0.255637
      3 S                    -0.134415
      4 C                    -0.045899
      5 H                     0.194152
      6 C                    -0.049617
      7 C                     0.219702
      8 C                     0.229200
      9 C                    -0.068280
     10 C                    -0.040297
     11 O                    -0.334635
     12 O                    -0.344190
     13 C                    -0.082693
     14 H                     0.119926
     15 H                     0.092295
     16 H                     0.093030
     17 C                    -0.088239
     18 H                     0.123973
     19 H                     0.093370
     20 H                     0.090780
     21 C                    -0.294763
     22 S                    -0.095175
     23 C                     0.076614
     24 H                     0.200755
     25 C                    -0.013529
     26 S                     0.081007
     27 C                    -0.204480
     28 C                    -0.022485
     29 C                    -0.106692
     30 S                     0.007180
     31 C                    -0.162309
     32 C                     0.403700
     33 F                    -0.207116
     34 C                     0.445755
     35 O                    -0.460632
     36 O                    -0.300824
     37 C                    -0.058595
     38 H                     0.121489
     39 H                     0.095188
     40 H                     0.095065
     41 H                     0.217501
     42 H                     0.117985
     43 H                     0.115624
     44 H                     0.206581
  ----------------------------------------
  Sum of atomic charges =     0.000000

                    Cartesian Multipole Moments
 -----------------------------------------------------------------
    Charge (ESU x 10^10)
                 0.0000
    Dipole Moment (Debye)
         X       1.8087      Y       1.7846      Z       2.5269
       Tot       3.5835
    Quadrupole Moments (Debye-Ang)
        XX    -198.1054     XY       7.9951     YY    -176.4594
        XZ      -3.4282     YZ      -2.6810     ZZ    -187.3869

 Total job time:  344.58s(wall), 11010.01s(cpu)
        *  Thank you very much for using Q-Chem.  Have a nice day.  *
