 Q-Chem 5.4, Q-Chem, Inc., Pleasanton, CA (2021)
 Q-Chem 5.4.0 for Intel X86 EM64T Linux

User input:
--------------------------------------------------------------
$molecule
0 1
C	-0.270358	-8.517702	0.172904
C	0.548363	-7.641575	-0.524688
S	-1.445750	-7.638634	1.180599
C	0.259951	-6.264785	-0.282727
H	1.347559	-7.966081	-1.203014
C	-0.833868	-6.072714	0.632972
C	-1.248701	-4.787049	1.013580
C	0.965673	-5.162801	-0.845068
C	0.553357	-3.874817	-0.460946
C	-0.543470	-3.683952	0.453541
O	1.958276	-5.499772	-1.714812
O	-2.245053	-4.459055	1.888193
C	-3.360989	-5.329063	2.033848
H	-4.130667	-4.755694	2.584788
H	-3.112380	-6.238095	2.624118
H	-3.770895	-5.637262	1.047748
C	2.994272	-4.572261	-2.013896
H	3.763700	-5.139743	-2.570853
H	3.448815	-4.153131	-1.090625
H	2.636780	-3.739531	-2.657717
C	-0.827659	-2.306654	0.694943
S	1.174750	-2.306501	-0.999993
C	-0.000000	-1.435185	-0.000000
H	-1.627541	-1.978138	1.370385
C	0.000000	0.000000	0.000000
S	0.079327	0.901280	1.507541
C	0.215617	2.467903	0.718873
C	0.079577	0.900940	-1.067872
C	0.198433	2.285998	-0.686410
S	0.061187	0.658044	-2.805516
C	0.208347	2.403534	-3.054530
C	0.267636	3.109360	-1.862551
F	0.379347	4.441341	-1.819088
C	0.249278	2.849688	-4.456084
O	0.190132	2.082076	-5.406510
O	0.359548	4.195721	-4.569225
C	0.407901	4.688467	-5.916207
H	0.496901	5.785916	-5.833064
H	-0.512596	4.414348	-6.470168
H	1.278377	4.268124	-6.459293
H	0.294764	3.388767	1.306486
H	0.311979	-9.143623	0.859314
H	-0.852097	-9.149441	-0.508666
H	0.699874	-1.443175	0.822504
$end

$rem
JOBTYPE		SP
EXCHANGE	HF
CORRELATION	pRIMP2
BASIS		cc-pvtz
METHOD		rimp2
AUX_BASIS	rimp2-cc-pvtz
SOLVENT_METHOD	PCM
PURECART	11111
SYMMETRY	false
MEM_TOTAL	110000
SCF_CONVERGENCE = 6
THRESH=10
GUI = 2
$end

$solvent
dielectric 4.90
$end
--------------------------------------------------------------

             Standard Nuclear Orientation (Angstroms)
    I     Atom           X                Y                Z
 ----------------------------------------------------------------
    1      C      -0.2703580000    -8.5177020000     0.1729040000
    2      C       0.5483630000    -7.6415750000    -0.5246880000
    3      S      -1.4457500000    -7.6386340000     1.1805990000
    4      C       0.2599510000    -6.2647850000    -0.2827270000
    5      H       1.3475590000    -7.9660810000    -1.2030140000
    6      C      -0.8338680000    -6.0727140000     0.6329720000
    7      C      -1.2487010000    -4.7870490000     1.0135800000
    8      C       0.9656730000    -5.1628010000    -0.8450680000
    9      C       0.5533570000    -3.8748170000    -0.4609460000
   10      C      -0.5434700000    -3.6839520000     0.4535410000
   11      O       1.9582760000    -5.4997720000    -1.7148120000
   12      O      -2.2450530000    -4.4590550000     1.8881930000
   13      C      -3.3609890000    -5.3290630000     2.0338480000
   14      H      -4.1306670000    -4.7556940000     2.5847880000
   15      H      -3.1123800000    -6.2380950000     2.6241180000
   16      H      -3.7708950000    -5.6372620000     1.0477480000
   17      C       2.9942720000    -4.5722610000    -2.0138960000
   18      H       3.7637000000    -5.1397430000    -2.5708530000
   19      H       3.4488150000    -4.1531310000    -1.0906250000
   20      H       2.6367800000    -3.7395310000    -2.6577170000
   21      C      -0.8276590000    -2.3066540000     0.6949430000
   22      S       1.1747500000    -2.3065010000    -0.9999930000
   23      C       0.0000000000    -1.4351850000     0.0000000000
   24      H      -1.6275410000    -1.9781380000     1.3703850000
   25      C       0.0000000000     0.0000000000     0.0000000000
   26      S       0.0793270000     0.9012800000     1.5075410000
   27      C       0.2156170000     2.4679030000     0.7188730000
   28      C       0.0795770000     0.9009400000    -1.0678720000
   29      C       0.1984330000     2.2859980000    -0.6864100000
   30      S       0.0611870000     0.6580440000    -2.8055160000
   31      C       0.2083470000     2.4035340000    -3.0545300000
   32      C       0.2676360000     3.1093600000    -1.8625510000
   33      F       0.3793470000     4.4413410000    -1.8190880000
   34      C       0.2492780000     2.8496880000    -4.4560840000
   35      O       0.1901320000     2.0820760000    -5.4065100000
   36      O       0.3595480000     4.1957210000    -4.5692250000
   37      C       0.4079010000     4.6884670000    -5.9162070000
   38      H       0.4969010000     5.7859160000    -5.8330640000
   39      H      -0.5125960000     4.4143480000    -6.4701680000
   40      H       1.2783770000     4.2681240000    -6.4592930000
   41      H       0.2947640000     3.3887670000     1.3064860000
   42      H       0.3119790000    -9.1436230000     0.8593140000
   43      H      -0.8520970000    -9.1494410000    -0.5086660000
   44      H       0.6998740000    -1.4431750000     0.8225040000
 ----------------------------------------------------------------

   11   -2755.3446000872      8.10e-07  Convergence criterion met
 Total energy in the final basis set =    -2755.3446000872
        RIMP2         total energy =     -2760.4323264872 a.u.

                    Orbital Energies (a.u.)
 --------------------------------------------------------------

 Alpha MOs
 -- Occupied --
-92.0157 -91.9959 -91.9794 -91.9584 -26.3427 -20.6147 -20.5875 -20.5871
-20.5612 -11.4092 -11.3815 -11.3093 -11.3080 -11.3078 -11.3052 -11.2974
-11.2960 -11.2887 -11.2847 -11.2843 -11.2835 -11.2831 -11.2813 -11.2732
-11.2727 -11.2584 -11.2583 -11.2499 -11.2372  -9.0144  -8.9960  -8.9814
 -8.9610  -6.6952  -6.6947  -6.6941  -6.6771  -6.6763  -6.6752  -6.6626
 -6.6617  -6.6604  -6.6422  -6.6413  -6.6403  -1.6599  -1.4671  -1.4106
 -1.4092  -1.3698  -1.2291  -1.2027  -1.1740  -1.1374  -1.1001  -1.0469
 -1.0438  -1.0243  -1.0040  -0.9972  -0.9631  -0.9577  -0.9486  -0.9411
 -0.8938  -0.8680  -0.8668  -0.8147  -0.7950  -0.7897  -0.7847  -0.7685
 -0.7564  -0.7377  -0.7248  -0.7155  -0.6969  -0.6877  -0.6845  -0.6801
 -0.6737  -0.6615  -0.6562  -0.6488  -0.6367  -0.6301  -0.6202  -0.6153
 -0.6108  -0.5991  -0.5924  -0.5768  -0.5712  -0.5639  -0.5593  -0.5575
 -0.5498  -0.5327  -0.5311  -0.5249  -0.5130  -0.5092  -0.5075  -0.5017
 -0.4851  -0.4800  -0.4763  -0.4736  -0.4694  -0.4678  -0.4610  -0.4472
 -0.4279  -0.3965  -0.3861  -0.3702  -0.3516  -0.2985  -0.2896  -0.2196

          Ground-State Mulliken Net Atomic Charges

     Atom                 Charge (a.u.)
  ----------------------------------------
      1 C                    -0.070138
      2 C                    -0.258549
      3 S                    -0.135407
      4 C                    -0.046147
      5 H                     0.193694
      6 C                    -0.050422
      7 C                     0.222127
      8 C                     0.226843
      9 C                    -0.073238
     10 C                    -0.034518
     11 O                    -0.334694
     12 O                    -0.343642
     13 C                    -0.082873
     14 H                     0.119910
     15 H                     0.092239
     16 H                     0.093171
     17 C                    -0.087338
     18 H                     0.123629
     19 H                     0.092167
     20 H                     0.091535
     21 C                    -0.294834
     22 S                    -0.080444
     23 C                     0.121461
     24 H                     0.203968
     25 C                    -0.083781
     26 S                     0.087121
     27 C                    -0.191937
     28 C                    -0.008911
     29 C                    -0.111676
     30 S                     0.006185
     31 C                    -0.156419
     32 C                     0.399989
     33 F                    -0.207801
     34 C                     0.443714
     35 O                    -0.460117
     36 O                    -0.300545
     37 C                    -0.058730
     38 H                     0.121310
     39 H                     0.095232
     40 H                     0.095054
     41 H                     0.218033
     42 H                     0.117420
     43 H                     0.115229
     44 H                     0.192128
  ----------------------------------------
  Sum of atomic charges =     0.000000

                    Cartesian Multipole Moments
 -----------------------------------------------------------------
    Charge (ESU x 10^10)
                -0.0000
    Dipole Moment (Debye)
         X       0.7606      Y       2.5338      Z       3.3432
       Tot       4.2633
    Quadrupole Moments (Debye-Ang)
        XX    -185.5950     XY      -1.7151     YY    -174.2784
        XZ      -6.9036     YZ      -4.8325     ZZ    -204.0265

 Total job time:  323.74s(wall), 10346.37s(cpu)
        *  Thank you very much for using Q-Chem.  Have a nice day.  *
