 Q-Chem 5.4, Q-Chem, Inc., Pleasanton, CA (2021)
 Q-Chem 5.4.0 for Intel X86 EM64T Linux

User input:
--------------------------------------------------------------
$molecule
0 1
C	-0.147685	-8.517702	0.284919
C	0.212552	-7.641575	-0.728574
S	-0.661757	-7.638634	1.745304
C	0.083761	-6.264785	-0.374824
H	0.565513	-7.966081	-1.715621
C	-0.405665	-6.072714	0.965104
C	-0.574617	-4.787049	1.502136
C	0.413763	-5.162801	-1.214687
C	0.248748	-3.874817	-0.675870
C	-0.243888	-3.683952	0.664513
O	0.838511	-5.499772	-2.464209
O	-1.000176	-4.459055	2.757750
C	-1.893778	-5.329063	3.441858
H	-2.284868	-4.755694	4.303826
H	-1.383341	-6.238095	3.828743
H	-2.741817	-5.637262	2.792824
C	1.586168	-4.572261	-3.241222
H	1.974033	-5.139743	-4.108274
H	2.441448	-4.153131	-2.668916
H	0.954660	-3.739531	-3.620041
C	-0.369302	-2.306654	1.015668
S	0.517367	-2.306501	-1.453394
C	0.000000	-1.435185	0.000000
H	-0.724300	-1.978138	2.000559
C	0.000000	0.000000	0.000000
S	0.234628	0.873813	1.507541
C	0.640889	2.392969	0.718873
C	0.234815	0.873434	-1.067872
C	0.592377	2.216811	-0.686410
S	0.174526	0.637422	-2.805516
C	0.622551	2.330840	-3.054530
C	0.803505	3.015647	-1.862551
F	1.144815	4.307994	-1.819088
C	0.740334	2.763108	-4.456084
O	0.548793	2.017428	-5.406510
O	1.082665	4.069544	-4.569225
C	1.215848	4.546407	-5.916207
H	1.494066	5.611729	-5.833064
H	0.261736	4.436296	-6.470168
H	2.000108	3.981294	-6.459293
H	0.878739	3.286099	1.306486
H	0.699838	-9.143623	0.588198
H	-0.992270	-9.149441	-0.014470
H	1.017360	-1.443175	0.362373
$end

$rem
JOBTYPE		SP
EXCHANGE	HF
CORRELATION	pRIMP2
BASIS		cc-pvtz
METHOD		rimp2
AUX_BASIS	rimp2-cc-pvtz
SOLVENT_METHOD	PCM
PURECART	11111
SYMMETRY	false
MEM_TOTAL	110000
SCF_CONVERGENCE = 6
THRESH=10
GUI = 2
$end

$solvent
dielectric 4.90
$end
--------------------------------------------------------------

             Standard Nuclear Orientation (Angstroms)
    I     Atom           X                Y                Z
 ----------------------------------------------------------------
    1      C      -0.1476850000    -8.5177020000     0.2849190000
    2      C       0.2125520000    -7.6415750000    -0.7285740000
    3      S      -0.6617570000    -7.6386340000     1.7453040000
    4      C       0.0837610000    -6.2647850000    -0.3748240000
    5      H       0.5655130000    -7.9660810000    -1.7156210000
    6      C      -0.4056650000    -6.0727140000     0.9651040000
    7      C      -0.5746170000    -4.7870490000     1.5021360000
    8      C       0.4137630000    -5.1628010000    -1.2146870000
    9      C       0.2487480000    -3.8748170000    -0.6758700000
   10      C      -0.2438880000    -3.6839520000     0.6645130000
   11      O       0.8385110000    -5.4997720000    -2.4642090000
   12      O      -1.0001760000    -4.4590550000     2.7577500000
   13      C      -1.8937780000    -5.3290630000     3.4418580000
   14      H      -2.2848680000    -4.7556940000     4.3038260000
   15      H      -1.3833410000    -6.2380950000     3.8287430000
   16      H      -2.7418170000    -5.6372620000     2.7928240000
   17      C       1.5861680000    -4.5722610000    -3.2412220000
   18      H       1.9740330000    -5.1397430000    -4.1082740000
   19      H       2.4414480000    -4.1531310000    -2.6689160000
   20      H       0.9546600000    -3.7395310000    -3.6200410000
   21      C      -0.3693020000    -2.3066540000     1.0156680000
   22      S       0.5173670000    -2.3065010000    -1.4533940000
   23      C       0.0000000000    -1.4351850000     0.0000000000
   24      H      -0.7243000000    -1.9781380000     2.0005590000
   25      C       0.0000000000     0.0000000000     0.0000000000
   26      S       0.2346280000     0.8738130000     1.5075410000
   27      C       0.6408890000     2.3929690000     0.7188730000
   28      C       0.2348150000     0.8734340000    -1.0678720000
   29      C       0.5923770000     2.2168110000    -0.6864100000
   30      S       0.1745260000     0.6374220000    -2.8055160000
   31      C       0.6225510000     2.3308400000    -3.0545300000
   32      C       0.8035050000     3.0156470000    -1.8625510000
   33      F       1.1448150000     4.3079940000    -1.8190880000
   34      C       0.7403340000     2.7631080000    -4.4560840000
   35      O       0.5487930000     2.0174280000    -5.4065100000
   36      O       1.0826650000     4.0695440000    -4.5692250000
   37      C       1.2158480000     4.5464070000    -5.9162070000
   38      H       1.4940660000     5.6117290000    -5.8330640000
   39      H       0.2617360000     4.4362960000    -6.4701680000
   40      H       2.0001080000     3.9812940000    -6.4592930000
   41      H       0.8787390000     3.2860990000     1.3064860000
   42      H       0.6998380000    -9.1436230000     0.5881980000
   43      H      -0.9922700000    -9.1494410000    -0.0144700000
   44      H       1.0173600000    -1.4431750000     0.3623730000
 ----------------------------------------------------------------

   11   -2755.3406055210      8.49e-07  Convergence criterion met
 Total energy in the final basis set =    -2755.3406055210
        RIMP2         total energy =     -2760.4314186739 a.u.

                    Orbital Energies (a.u.)
 --------------------------------------------------------------

 Alpha MOs
 -- Occupied --
-92.0128 -91.9938 -91.9803 -91.9600 -26.3419 -20.6146 -20.5885 -20.5882
-20.5611 -11.4089 -11.3803 -11.3108 -11.3102 -11.3100 -11.3021 -11.2970
-11.2919 -11.2886 -11.2847 -11.2844 -11.2842 -11.2840 -11.2836 -11.2754
-11.2721 -11.2614 -11.2598 -11.2515 -11.2409  -9.0118  -8.9941  -8.9825
 -8.9626  -6.6927  -6.6921  -6.6915  -6.6751  -6.6744  -6.6732  -6.6636
 -6.6628  -6.6615  -6.6438  -6.6429  -6.6418  -1.6591  -1.4670  -1.4119
 -1.4100  -1.3697  -1.2304  -1.2025  -1.1756  -1.1373  -1.1011  -1.0486
 -1.0438  -1.0241  -1.0047  -0.9980  -0.9635  -0.9570  -0.9497  -0.9418
 -0.8950  -0.8687  -0.8655  -0.8151  -0.7930  -0.7901  -0.7848  -0.7701
 -0.7562  -0.7379  -0.7241  -0.7129  -0.6972  -0.6910  -0.6844  -0.6813
 -0.6735  -0.6637  -0.6567  -0.6495  -0.6383  -0.6311  -0.6217  -0.6161
 -0.6112  -0.5994  -0.5933  -0.5769  -0.5712  -0.5659  -0.5600  -0.5575
 -0.5493  -0.5334  -0.5311  -0.5265  -0.5152  -0.5119  -0.5083  -0.5016
 -0.4848  -0.4780  -0.4771  -0.4736  -0.4698  -0.4668  -0.4599  -0.4483
 -0.4317  -0.3961  -0.3851  -0.3720  -0.3512  -0.2987  -0.2876  -0.2190

          Ground-State Mulliken Net Atomic Charges

     Atom                 Charge (a.u.)
  ----------------------------------------
      1 C                    -0.070731
      2 C                    -0.248554
      3 S                    -0.132084
      4 C                    -0.051836
      5 H                     0.195040
      6 C                    -0.048772
      7 C                     0.217937
      8 C                     0.233297
      9 C                    -0.072848
     10 C                    -0.012699
     11 O                    -0.333923
     12 O                    -0.343764
     13 C                    -0.082809
     14 H                     0.120128
     15 H                     0.092117
     16 H                     0.093302
     17 C                    -0.089991
     18 H                     0.124947
     19 H                     0.093091
     20 H                     0.092488
     21 C                    -0.342277
     22 S                    -0.106281
     23 C                     0.163079
     24 H                     0.197832
     25 C                     0.006198
     26 S                     0.078981
     27 C                    -0.218903
     28 C                    -0.085856
     29 C                    -0.096720
     30 S                    -0.003050
     31 C                    -0.162582
     32 C                     0.409230
     33 F                    -0.208349
     34 C                     0.441367
     35 O                    -0.460164
     36 O                    -0.300549
     37 C                    -0.058680
     38 H                     0.121361
     39 H                     0.095172
     40 H                     0.094967
     41 H                     0.216318
     42 H                     0.118928
     43 H                     0.116668
     44 H                     0.208976
  ----------------------------------------
  Sum of atomic charges =     0.000000

                    Cartesian Multipole Moments
 -----------------------------------------------------------------
    Charge (ESU x 10^10)
                 0.0000
    Dipole Moment (Debye)
         X       1.3217      Y       1.2974      Z       2.9597
       Tot       3.4914
    Quadrupole Moments (Debye-Ang)
        XX    -193.5071     XY       2.2687     YY    -169.8244
        XZ     -11.1888     YZ      -3.1462     ZZ    -195.2285

 Total job time:  366.01s(wall), 11222.43s(cpu)
        *  Thank you very much for using Q-Chem.  Have a nice day.  *
