 Q-Chem 5.4, Q-Chem, Inc., Pleasanton, CA (2021)
 Q-Chem 5.4.0 for Intel X86 EM64T Linux

User input:
--------------------------------------------------------------
$molecule
0 1
C	-0.320589	-8.517702	0.014560
C	0.737240	-7.641575	-0.180211
S	-1.842356	-7.638634	0.299553
C	0.366488	-6.264785	-0.114873
H	1.768528	-7.966081	-0.368061
C	-1.038637	-6.072714	0.131236
C	-1.588197	-4.787049	0.253435
C	1.258831	-5.162801	-0.249014
C	0.709695	-3.874817	-0.122513
C	-0.697430	-3.683952	0.121043
O	2.553323	-5.499772	-0.505933
O	-2.888369	-4.459055	0.512697
C	-3.927625	-5.329063	0.080869
H	-4.869656	-4.755694	0.173159
H	-4.007459	-6.238095	0.716363
H	-3.789565	-5.637262	-0.978072
C	3.600064	-4.572261	-0.246949
H	4.544887	-5.139743	-0.344574
H	3.532074	-4.153131	0.779898
H	3.612378	-3.739531	-0.983261
C	-1.064246	-2.306654	0.188009
S	1.517360	-2.306501	-0.278644
C	0.000000	-1.435185	0.000000
H	-2.094685	-1.978138	0.373017
C	0.000000	0.000000	0.000000
S	0.693394	0.581209	1.507541
C	1.897536	1.592607	0.718873
C	0.693330	0.580791	-1.067872
C	1.756758	1.476132	-0.686410
S	0.508573	0.422041	-2.805516
C	1.846879	1.552232	-3.054530
C	2.387897	2.009402	-1.862551
F	3.408741	2.872264	-1.819088
C	2.191300	1.838768	-4.456084
O	1.606694	1.337806	-5.406510
O	3.221062	2.712584	-4.569225
C	3.603677	3.026817	-5.916207
H	4.442623	3.739898	-5.833064
H	2.758956	3.483875	-6.470168
H	3.921969	2.114070	-6.459293
H	2.604650	2.187790	1.306486
H	-0.159475	-9.143623	0.900177
H	-0.483604	-9.149441	-0.866566
H	0.194856	-1.443175	1.062246
$end

$rem
JOBTYPE		SP
EXCHANGE	HF
CORRELATION	pRIMP2
BASIS		cc-pvtz
METHOD		rimp2
AUX_BASIS	rimp2-cc-pvtz
SOLVENT_METHOD	PCM
PURECART	11111
SYMMETRY	false
MEM_TOTAL	110000
SCF_CONVERGENCE = 6
THRESH=10
GUI = 2
$end

$solvent
dielectric 4.90
$end
--------------------------------------------------------------

             Standard Nuclear Orientation (Angstroms)
    I     Atom           X                Y                Z
 ----------------------------------------------------------------
    1      C      -0.3205890000    -8.5177020000     0.0145600000
    2      C       0.7372400000    -7.6415750000    -0.1802110000
    3      S      -1.8423560000    -7.6386340000     0.2995530000
    4      C       0.3664880000    -6.2647850000    -0.1148730000
    5      H       1.7685280000    -7.9660810000    -0.3680610000
    6      C      -1.0386370000    -6.0727140000     0.1312360000
    7      C      -1.5881970000    -4.7870490000     0.2534350000
    8      C       1.2588310000    -5.1628010000    -0.2490140000
    9      C       0.7096950000    -3.8748170000    -0.1225130000
   10      C      -0.6974300000    -3.6839520000     0.1210430000
   11      O       2.5533230000    -5.4997720000    -0.5059330000
   12      O      -2.8883690000    -4.4590550000     0.5126970000
   13      C      -3.9276250000    -5.3290630000     0.0808690000
   14      H      -4.8696560000    -4.7556940000     0.1731590000
   15      H      -4.0074590000    -6.2380950000     0.7163630000
   16      H      -3.7895650000    -5.6372620000    -0.9780720000
   17      C       3.6000640000    -4.5722610000    -0.2469490000
   18      H       4.5448870000    -5.1397430000    -0.3445740000
   19      H       3.5320740000    -4.1531310000     0.7798980000
   20      H       3.6123780000    -3.7395310000    -0.9832610000
   21      C      -1.0642460000    -2.3066540000     0.1880090000
   22      S       1.5173600000    -2.3065010000    -0.2786440000
   23      C       0.0000000000    -1.4351850000     0.0000000000
   24      H      -2.0946850000    -1.9781380000     0.3730170000
   25      C       0.0000000000     0.0000000000     0.0000000000
   26      S       0.6933940000     0.5812090000     1.5075410000
   27      C       1.8975360000     1.5926070000     0.7188730000
   28      C       0.6933300000     0.5807910000    -1.0678720000
   29      C       1.7567580000     1.4761320000    -0.6864100000
   30      S       0.5085730000     0.4220410000    -2.8055160000
   31      C       1.8468790000     1.5522320000    -3.0545300000
   32      C       2.3878970000     2.0094020000    -1.8625510000
   33      F       3.4087410000     2.8722640000    -1.8190880000
   34      C       2.1913000000     1.8387680000    -4.4560840000
   35      O       1.6066940000     1.3378060000    -5.4065100000
   36      O       3.2210620000     2.7125840000    -4.5692250000
   37      C       3.6036770000     3.0268170000    -5.9162070000
   38      H       4.4426230000     3.7398980000    -5.8330640000
   39      H       2.7589560000     3.4838750000    -6.4701680000
   40      H       3.9219690000     2.1140700000    -6.4592930000
   41      H       2.6046500000     2.1877900000     1.3064860000
   42      H      -0.1594750000    -9.1436230000     0.9001770000
   43      H      -0.4836040000    -9.1494410000    -0.8665660000
   44      H       0.1948560000    -1.4431750000     1.0622460000
 ----------------------------------------------------------------

   11   -2755.2949464410      7.40e-07  Convergence criterion met
 Total energy in the final basis set =    -2755.2949464410
        RIMP2         total energy =     -2760.3928071718 a.u.

                    Orbital Energies (a.u.)
 --------------------------------------------------------------

 Alpha MOs
 -- Occupied --
-92.0141 -92.0064 -91.9731 -91.9550 -26.3461 -20.6156 -20.5859 -20.5843
-20.5620 -11.4105 -11.3867 -11.3305 -11.3142 -11.3072 -11.3028 -11.2987
-11.2894 -11.2878 -11.2832 -11.2817 -11.2806 -11.2784 -11.2728 -11.2689
-11.2679 -11.2555 -11.2501 -11.2467 -11.2303  -9.0139  -9.0062  -8.9756
 -8.9577  -6.6946  -6.6937  -6.6934  -6.6872  -6.6864  -6.6854  -6.6567
 -6.6558  -6.6545  -6.6389  -6.6380  -6.6370  -1.6632  -1.4681  -1.4082
 -1.4071  -1.3708  -1.2385  -1.2001  -1.1713  -1.1410  -1.0971  -1.0486
 -1.0424  -1.0285  -1.0013  -0.9935  -0.9661  -0.9582  -0.9469  -0.9402
 -0.8911  -0.8722  -0.8600  -0.8196  -0.7970  -0.7873  -0.7822  -0.7656
 -0.7575  -0.7384  -0.7278  -0.7180  -0.6957  -0.6886  -0.6854  -0.6780
 -0.6747  -0.6618  -0.6544  -0.6470  -0.6344  -0.6298  -0.6171  -0.6140
 -0.6107  -0.6018  -0.5902  -0.5756  -0.5716  -0.5629  -0.5585  -0.5538
 -0.5377  -0.5321  -0.5317  -0.5239  -0.5122  -0.5091  -0.5056  -0.4986
 -0.4871  -0.4823  -0.4758  -0.4746  -0.4700  -0.4644  -0.4587  -0.4441
 -0.4206  -0.3979  -0.3830  -0.3675  -0.3499  -0.3091  -0.2868  -0.2160

          Ground-State Mulliken Net Atomic Charges

     Atom                 Charge (a.u.)
  ----------------------------------------
      1 C                    -0.069273
      2 C                    -0.278007
      3 S                    -0.142970
      4 C                    -0.041107
      5 H                     0.190905
      6 C                    -0.056926
      7 C                     0.225853
      8 C                     0.219757
      9 C                    -0.070020
     10 C                    -0.055959
     11 O                    -0.335625
     12 O                    -0.343204
     13 C                    -0.082632
     14 H                     0.119353
     15 H                     0.091883
     16 H                     0.092924
     17 C                    -0.086898
     18 H                     0.122796
     19 H                     0.090672
     20 H                     0.089763
     21 C                    -0.263793
     22 S                    -0.090368
     23 C                     0.031949
     24 H                     0.204834
     25 C                    -0.110608
     26 S                     0.099389
     27 C                    -0.133964
     28 C                     0.006089
     29 C                    -0.091548
     30 S                     0.052791
     31 C                    -0.151748
     32 C                     0.396141
     33 F                    -0.204554
     34 C                     0.447631
     35 O                    -0.461552
     36 O                    -0.301281
     37 C                    -0.058242
     38 H                     0.121419
     39 H                     0.095252
     40 H                     0.095426
     41 H                     0.220978
     42 H                     0.114575
     43 H                     0.112489
     44 H                     0.187409
  ----------------------------------------
  Sum of atomic charges =     0.000000

                    Cartesian Multipole Moments
 -----------------------------------------------------------------
    Charge (ESU x 10^10)
                 0.0000
    Dipole Moment (Debye)
         X       3.1074      Y       4.0620      Z       3.1533
       Tot       6.0082
    Quadrupole Moments (Debye-Ang)
        XX    -173.9902     XY       5.4864     YY    -194.4487
        XZ      -2.6087     YZ      -4.0027     ZZ    -204.0623

 Total job time:  327.44s(wall), 10702.05s(cpu)
        *  Thank you very much for using Q-Chem.  Have a nice day.  *
