 Q-Chem 5.4, Q-Chem, Inc., Pleasanton, CA (2021)
 Q-Chem 5.4.0 for Intel X86 EM64T Linux

User input:
--------------------------------------------------------------
$molecule
0 1
C	-0.070009	-8.517702	-0.313191
C	0.305494	-7.641575	0.694746
S	-0.614924	-7.638634	-1.762350
C	0.176768	-6.264785	0.340973
H	0.669571	-7.966081	1.677747
C	-0.309600	-6.072714	-1.000069
C	-0.525372	-4.787049	-1.520060
C	0.463825	-5.162801	1.196466
C	0.243888	-3.874817	0.677639
C	-0.240312	-3.683952	-0.665815
O	0.941626	-5.499772	2.426678
O	-1.006468	-4.459055	-2.755460
C	-0.761666	-5.329063	-3.853913
H	-1.016135	-4.755694	-4.765607
H	-1.401368	-6.238095	-3.822182
H	0.305161	-5.637262	-3.901833
C	0.868342	-4.572261	3.502489
H	1.128551	-5.139743	4.416005
H	-0.154712	-4.153131	3.613841
H	1.595605	-3.739531	3.386756
C	-0.369957	-2.306654	-1.015430
S	0.537898	-2.306501	1.445922
C	0.000000	-1.435185	0.000000
H	-0.731088	-1.978138	-1.998088
C	0.000000	0.000000	0.000000
S	0.693394	0.581209	1.507541
C	1.897536	1.592607	0.718873
C	0.693330	0.580791	-1.067872
C	1.756758	1.476132	-0.686410
S	0.508573	0.422041	-2.805516
C	1.846879	1.552232	-3.054530
C	2.387897	2.009402	-1.862551
F	3.408741	2.872264	-1.819088
C	2.191300	1.838768	-4.456084
O	1.606694	1.337806	-5.406510
O	3.221062	2.712584	-4.569225
C	3.603677	3.026817	-5.916207
H	4.442623	3.739898	-5.833064
H	2.758956	3.483875	-6.470168
H	3.921969	2.114070	-6.459293
H	2.604650	2.187790	1.306486
H	-0.914194	-9.143623	-0.000738
H	0.769424	-9.149441	-0.626735
H	-1.012272	-1.443175	0.376353
$end

$rem
JOBTYPE		SP
EXCHANGE	HF
CORRELATION	pRIMP2
BASIS		cc-pvtz
METHOD		rimp2
AUX_BASIS	rimp2-cc-pvtz
SOLVENT_METHOD	PCM
PURECART	11111
SYMMETRY	false
MEM_TOTAL	110000
SCF_CONVERGENCE = 6
THRESH=10
GUI = 2
$end

$solvent
dielectric 4.90
$end
--------------------------------------------------------------

             Standard Nuclear Orientation (Angstroms)
    I     Atom           X                Y                Z
 ----------------------------------------------------------------
    1      C      -0.0700090000    -8.5177020000    -0.3131910000
    2      C       0.3054940000    -7.6415750000     0.6947460000
    3      S      -0.6149240000    -7.6386340000    -1.7623500000
    4      C       0.1767680000    -6.2647850000     0.3409730000
    5      H       0.6695710000    -7.9660810000     1.6777470000
    6      C      -0.3096000000    -6.0727140000    -1.0000690000
    7      C      -0.5253720000    -4.7870490000    -1.5200600000
    8      C       0.4638250000    -5.1628010000     1.1964660000
    9      C       0.2438880000    -3.8748170000     0.6776390000
   10      C      -0.2403120000    -3.6839520000    -0.6658150000
   11      O       0.9416260000    -5.4997720000     2.4266780000
   12      O      -1.0064680000    -4.4590550000    -2.7554600000
   13      C      -0.7616660000    -5.3290630000    -3.8539130000
   14      H      -1.0161350000    -4.7556940000    -4.7656070000
   15      H      -1.4013680000    -6.2380950000    -3.8221820000
   16      H       0.3051610000    -5.6372620000    -3.9018330000
   17      C       0.8683420000    -4.5722610000     3.5024890000
   18      H       1.1285510000    -5.1397430000     4.4160050000
   19      H      -0.1547120000    -4.1531310000     3.6138410000
   20      H       1.5956050000    -3.7395310000     3.3867560000
   21      C      -0.3699570000    -2.3066540000    -1.0154300000
   22      S       0.5378980000    -2.3065010000     1.4459220000
   23      C       0.0000000000    -1.4351850000     0.0000000000
   24      H      -0.7310880000    -1.9781380000    -1.9980880000
   25      C       0.0000000000     0.0000000000     0.0000000000
   26      S       0.6933940000     0.5812090000     1.5075410000
   27      C       1.8975360000     1.5926070000     0.7188730000
   28      C       0.6933300000     0.5807910000    -1.0678720000
   29      C       1.7567580000     1.4761320000    -0.6864100000
   30      S       0.5085730000     0.4220410000    -2.8055160000
   31      C       1.8468790000     1.5522320000    -3.0545300000
   32      C       2.3878970000     2.0094020000    -1.8625510000
   33      F       3.4087410000     2.8722640000    -1.8190880000
   34      C       2.1913000000     1.8387680000    -4.4560840000
   35      O       1.6066940000     1.3378060000    -5.4065100000
   36      O       3.2210620000     2.7125840000    -4.5692250000
   37      C       3.6036770000     3.0268170000    -5.9162070000
   38      H       4.4426230000     3.7398980000    -5.8330640000
   39      H       2.7589560000     3.4838750000    -6.4701680000
   40      H       3.9219690000     2.1140700000    -6.4592930000
   41      H       2.6046500000     2.1877900000     1.3064860000
   42      H      -0.9141940000    -9.1436230000    -0.0007380000
   43      H       0.7694240000    -9.1494410000    -0.6267350000
   44      H      -1.0122720000    -1.4431750000     0.3763530000
 ----------------------------------------------------------------

   11   -2755.2835331751      8.60e-07  Convergence criterion met
 Total energy in the final basis set =    -2755.2835331751
        RIMP2         total energy =     -2760.3876945426 a.u.

                    Orbital Energies (a.u.)
 --------------------------------------------------------------

 Alpha MOs
 -- Occupied --
-92.0141 -92.0066 -91.9777 -91.9549 -26.3458 -20.6160 -20.5858 -20.5846
-20.5626 -11.4111 -11.3862 -11.3250 -11.3108 -11.3076 -11.3027 -11.2995
-11.2897 -11.2878 -11.2837 -11.2815 -11.2813 -11.2801 -11.2748 -11.2729
-11.2680 -11.2554 -11.2518 -11.2463 -11.2290  -9.0137  -9.0066  -8.9800
 -8.9575  -6.6944  -6.6936  -6.6933  -6.6875  -6.6868  -6.6857  -6.6609
 -6.6601  -6.6587  -6.6388  -6.6379  -6.6368  -1.6628  -1.4686  -1.4083
 -1.4072  -1.3713  -1.2366  -1.2010  -1.1709  -1.1405  -1.0977  -1.0480
 -1.0442  -1.0275  -1.0022  -0.9950  -0.9654  -0.9597  -0.9466  -0.9401
 -0.8927  -0.8716  -0.8615  -0.8145  -0.7996  -0.7902  -0.7812  -0.7644
 -0.7581  -0.7369  -0.7276  -0.7156  -0.6970  -0.6897  -0.6858  -0.6804
 -0.6751  -0.6616  -0.6552  -0.6472  -0.6383  -0.6304  -0.6168  -0.6130
 -0.6112  -0.6020  -0.5910  -0.5790  -0.5689  -0.5654  -0.5570  -0.5556
 -0.5379  -0.5350  -0.5305  -0.5262  -0.5147  -0.5089  -0.5066  -0.4988
 -0.4873  -0.4819  -0.4765  -0.4745  -0.4688  -0.4666  -0.4524  -0.4434
 -0.4302  -0.3904  -0.3837  -0.3679  -0.3498  -0.3060  -0.2860  -0.2113

          Ground-State Mulliken Net Atomic Charges

     Atom                 Charge (a.u.)
  ----------------------------------------
      1 C                    -0.068780
      2 C                    -0.283196
      3 S                    -0.142927
      4 C                    -0.040578
      5 H                     0.190287
      6 C                    -0.056902
      7 C                     0.227429
      8 C                     0.216373
      9 C                    -0.073612
     10 C                    -0.060238
     11 O                    -0.335599
     12 O                    -0.344588
     13 C                    -0.082743
     14 H                     0.120255
     15 H                     0.092192
     16 H                     0.092620
     17 C                    -0.088010
     18 H                     0.123524
     19 H                     0.091274
     20 H                     0.088671
     21 C                    -0.248830
     22 S                    -0.093811
     23 C                     0.048812
     24 H                     0.204035
     25 C                    -0.135652
     26 S                     0.087767
     27 C                    -0.146061
     28 C                     0.071494
     29 C                    -0.121122
     30 S                     0.034197
     31 C                    -0.160112
     32 C                     0.403839
     33 F                    -0.204813
     34 C                     0.447655
     35 O                    -0.461510
     36 O                    -0.301098
     37 C                    -0.058306
     38 H                     0.121709
     39 H                     0.095242
     40 H                     0.095454
     41 H                     0.221004
     42 H                     0.114149
     43 H                     0.111804
     44 H                     0.208705
  ----------------------------------------
  Sum of atomic charges =     0.000000

                    Cartesian Multipole Moments
 -----------------------------------------------------------------
    Charge (ESU x 10^10)
                -0.0000
    Dipole Moment (Debye)
         X       2.3548      Y       4.0086      Z       2.9403
       Tot       5.5008
    Quadrupole Moments (Debye-Ang)
        XX    -191.5640     XY       7.5229     YY    -196.0983
        XZ      -5.3420     YZ      -8.0257     ZZ    -186.4304

 Total job time:  326.19s(wall), 10685.82s(cpu)
        *  Thank you very much for using Q-Chem.  Have a nice day.  *
