 Q-Chem 5.4, Q-Chem, Inc., Pleasanton, CA (2021)
 Q-Chem 5.4.0 for Intel X86 EM64T Linux

User input:
--------------------------------------------------------------
$molecule
0 1
C	0.194917	-8.517702	-0.254945
C	-0.335839	-7.641575	0.680596
S	0.954772	-7.638634	-1.603876
C	-0.147576	-6.264785	0.354585
H	-0.854836	-7.966081	1.591356
C	0.567090	-6.072714	-0.879999
C	0.826731	-4.787049	-1.379534
C	-0.618405	-5.162801	1.124384
C	-0.362333	-3.874817	0.622407
C	0.355575	-3.683952	-0.612067
O	-1.253677	-5.499772	2.281166
O	1.463859	-4.459055	-2.542174
C	2.462679	-5.329063	-3.060718
H	2.997507	-4.755694	-3.841678
H	2.027179	-6.238095	-3.530361
H	3.185132	-5.637262	-2.274283
C	-2.124902	-4.572261	2.916545
H	-2.657438	-5.139743	3.703073
H	-2.867810	-4.153131	2.204417
H	-1.568770	-3.739531	3.399269
C	0.540061	-2.306654	-0.936109
S	-0.761887	-2.306501	1.341474
C	-0.000000	-1.435185	-0.000000
H	1.060690	-1.978138	-1.844392
C	0.000000	0.000000	0.000000
S	0.783786	0.451972	1.507541
C	2.145261	1.238908	0.718873
C	0.783650	0.451572	-1.067872
C	1.986396	1.148648	-0.686410
S	0.574133	0.327317	-2.805516
C	2.088363	1.207943	-3.054530
C	2.700548	1.564221	-1.862551
F	3.855718	2.236706	-1.819088
C	2.477307	1.430318	-4.456084
O	1.814592	1.038482	-5.406510
O	3.643162	2.112042	-4.569225
C	4.074530	2.355061	-5.916207
H	5.024556	2.911627	-5.833064
H	3.322010	2.951860	-6.470168
H	4.229490	1.400910	-6.459293
H	2.944986	1.702260	1.306486
H	-0.587067	-9.143623	-0.700788
H	0.974683	-9.149441	0.186556
H	-0.938979	-1.443175	-0.533530
$end

$rem
JOBTYPE		SP
EXCHANGE	HF
CORRELATION	pRIMP2
BASIS		cc-pvtz
METHOD		rimp2
AUX_BASIS	rimp2-cc-pvtz
SOLVENT_METHOD	PCM
PURECART	11111
SYMMETRY	false
MEM_TOTAL	110000
SCF_CONVERGENCE = 6
THRESH=10
GUI = 2
$end

$solvent
dielectric 4.90
$end
--------------------------------------------------------------

             Standard Nuclear Orientation (Angstroms)
    I     Atom           X                Y                Z
 ----------------------------------------------------------------
    1      C       0.1949170000    -8.5177020000    -0.2549450000
    2      C      -0.3358390000    -7.6415750000     0.6805960000
    3      S       0.9547720000    -7.6386340000    -1.6038760000
    4      C      -0.1475760000    -6.2647850000     0.3545850000
    5      H      -0.8548360000    -7.9660810000     1.5913560000
    6      C       0.5670900000    -6.0727140000    -0.8799990000
    7      C       0.8267310000    -4.7870490000    -1.3795340000
    8      C      -0.6184050000    -5.1628010000     1.1243840000
    9      C      -0.3623330000    -3.8748170000     0.6224070000
   10      C       0.3555750000    -3.6839520000    -0.6120670000
   11      O      -1.2536770000    -5.4997720000     2.2811660000
   12      O       1.4638590000    -4.4590550000    -2.5421740000
   13      C       2.4626790000    -5.3290630000    -3.0607180000
   14      H       2.9975070000    -4.7556940000    -3.8416780000
   15      H       2.0271790000    -6.2380950000    -3.5303610000
   16      H       3.1851320000    -5.6372620000    -2.2742830000
   17      C      -2.1249020000    -4.5722610000     2.9165450000
   18      H      -2.6574380000    -5.1397430000     3.7030730000
   19      H      -2.8678100000    -4.1531310000     2.2044170000
   20      H      -1.5687700000    -3.7395310000     3.3992690000
   21      C       0.5400610000    -2.3066540000    -0.9361090000
   22      S      -0.7618870000    -2.3065010000     1.3414740000
   23      C       0.0000000000    -1.4351850000     0.0000000000
   24      H       1.0606900000    -1.9781380000    -1.8443920000
   25      C       0.0000000000     0.0000000000     0.0000000000
   26      S       0.7837860000     0.4519720000     1.5075410000
   27      C       2.1452610000     1.2389080000     0.7188730000
   28      C       0.7836500000     0.4515720000    -1.0678720000
   29      C       1.9863960000     1.1486480000    -0.6864100000
   30      S       0.5741330000     0.3273170000    -2.8055160000
   31      C       2.0883630000     1.2079430000    -3.0545300000
   32      C       2.7005480000     1.5642210000    -1.8625510000
   33      F       3.8557180000     2.2367060000    -1.8190880000
   34      C       2.4773070000     1.4303180000    -4.4560840000
   35      O       1.8145920000     1.0384820000    -5.4065100000
   36      O       3.6431620000     2.1120420000    -4.5692250000
   37      C       4.0745300000     2.3550610000    -5.9162070000
   38      H       5.0245560000     2.9116270000    -5.8330640000
   39      H       3.3220100000     2.9518600000    -6.4701680000
   40      H       4.2294900000     1.4009100000    -6.4592930000
   41      H       2.9449860000     1.7022600000     1.3064860000
   42      H      -0.5870670000    -9.1436230000    -0.7007880000
   43      H       0.9746830000    -9.1494410000     0.1865560000
   44      H      -0.9389790000    -1.4431750000    -0.5335300000
 ----------------------------------------------------------------

   11   -2755.2664825506      7.71e-07  Convergence criterion met
 Total energy in the final basis set =    -2755.2664825506
        RIMP2         total energy =     -2760.3738915981 a.u.

                    Orbital Energies (a.u.)
 --------------------------------------------------------------

 Alpha MOs
 -- Occupied --
-92.0112 -92.0093 -91.9754 -91.9546 -26.3478 -20.6168 -20.5859 -20.5842
-20.5633 -11.4121 -11.3888 -11.3335 -11.3208 -11.3076 -11.3024 -11.3007
-11.2903 -11.2902 -11.2831 -11.2817 -11.2813 -11.2732 -11.2715 -11.2705
-11.2673 -11.2552 -11.2502 -11.2461 -11.2287  -9.0111  -9.0093  -8.9776
 -8.9572  -6.6920  -6.6913  -6.6903  -6.6900  -6.6889  -6.6888  -6.6588
 -6.6579  -6.6567  -6.6385  -6.6376  -6.6365  -1.6647  -1.4693  -1.4082
 -1.4070  -1.3721  -1.2423  -1.2001  -1.1707  -1.1417  -1.0988  -1.0511
 -1.0434  -1.0283  -1.0009  -0.9948  -0.9657  -0.9600  -0.9472  -0.9413
 -0.8918  -0.8737  -0.8592  -0.8144  -0.8005  -0.7915  -0.7808  -0.7643
 -0.7596  -0.7361  -0.7293  -0.7138  -0.6994  -0.6929  -0.6868  -0.6812
 -0.6758  -0.6646  -0.6549  -0.6471  -0.6394  -0.6307  -0.6168  -0.6147
 -0.6113  -0.6031  -0.5916  -0.5793  -0.5725  -0.5666  -0.5569  -0.5552
 -0.5365  -0.5327  -0.5280  -0.5228  -0.5123  -0.5101  -0.5059  -0.4995
 -0.4882  -0.4806  -0.4779  -0.4747  -0.4682  -0.4622  -0.4542  -0.4432
 -0.4261  -0.3942  -0.3798  -0.3663  -0.3514  -0.3094  -0.2859  -0.2120

          Ground-State Mulliken Net Atomic Charges

     Atom                 Charge (a.u.)
  ----------------------------------------
      1 C                    -0.068501
      2 C                    -0.284030
      3 S                    -0.144594
      4 C                    -0.040222
      5 H                     0.190251
      6 C                    -0.055823
      7 C                     0.231164
      8 C                     0.224327
      9 C                    -0.070020
     10 C                    -0.063222
     11 O                    -0.335861
     12 O                    -0.344499
     13 C                    -0.082970
     14 H                     0.119669
     15 H                     0.092686
     16 H                     0.092292
     17 C                    -0.086985
     18 H                     0.123400
     19 H                     0.091722
     20 H                     0.088819
     21 C                    -0.271020
     22 S                    -0.109411
     23 C                     0.076210
     24 H                     0.209473
     25 C                    -0.198255
     26 S                     0.109408
     27 C                    -0.127686
     28 C                     0.046560
     29 C                    -0.104467
     30 S                     0.055733
     31 C                    -0.155971
     32 C                     0.401717
     33 F                    -0.203743
     34 C                     0.448900
     35 O                    -0.462046
     36 O                    -0.301158
     37 C                    -0.058054
     38 H                     0.121848
     39 H                     0.095524
     40 H                     0.095420
     41 H                     0.219605
     42 H                     0.114105
     43 H                     0.111666
     44 H                     0.208039
  ----------------------------------------
  Sum of atomic charges =     0.000000

                    Cartesian Multipole Moments
 -----------------------------------------------------------------
    Charge (ESU x 10^10)
                 0.0000
    Dipole Moment (Debye)
         X       3.1445      Y       3.7998      Z       2.1043
       Tot       5.3623
    Quadrupole Moments (Debye-Ang)
        XX    -177.7996     XY       9.7960     YY    -199.3361
        XZ     -15.4097     YZ      -6.7244     ZZ    -196.4305

 Total job time:  358.80s(wall), 11292.37s(cpu)
        *  Thank you very much for using Q-Chem.  Have a nice day.  *
