 Q-Chem 5.4, Q-Chem, Inc., Pleasanton, CA (2021)
 Q-Chem 5.4.0 for Intel X86 EM64T Linux

User input:
--------------------------------------------------------------
$molecule
0 1
C	0.123330	-8.517702	0.296276
C	-0.421494	-7.641575	-0.631143
S	0.911611	-7.638634	1.628795
C	-0.233291	-6.264785	-0.305097
H	-0.950737	-7.966081	-1.535988
C	0.478557	-6.072714	0.931114
C	0.781346	-4.787049	1.405737
C	-0.664542	-5.162801	-1.097747
C	-0.357854	-3.874817	-0.624993
C	0.352278	-3.683952	0.613970
O	-1.348709	-5.499772	-2.226300
O	1.469658	-4.459055	2.538827
C	1.419319	-5.329063	3.663102
H	1.828237	-4.755694	4.516756
H	2.043793	-6.238095	3.520769
H	0.377021	-5.637262	3.895546
C	-1.463351	-4.572261	-3.298492
H	-1.878237	-5.139743	-4.152945
H	-0.475176	-4.153131	-3.585804
H	-2.159469	-3.739531	-3.058230
C	0.540664	-2.306654	0.935761
S	-0.780808	-2.306501	-1.330550
C	0.000000	-1.435185	0.000000
H	1.066946	-1.978138	1.840780
C	0.000000	0.000000	0.000000
S	0.000474	0.904764	1.507541
C	-0.000295	2.477305	0.718873
C	0.000752	0.904447	-1.067872
C	-0.001560	2.294593	-0.686410
S	0.003602	0.660872	-2.805516
C	-0.001928	2.412546	-3.054530
C	-0.004381	3.120854	-1.862551
F	-0.009185	4.457503	-1.819088
C	-0.000038	2.860570	-4.456084
O	0.007944	2.090724	-5.406510
O	-0.007501	4.211092	-4.569225
C	-0.002278	4.706177	-5.916207
H	-0.009265	5.807207	-5.833064
H	-0.895381	4.352875	-6.470168
H	0.901521	4.363301	-6.459293
H	-0.001708	3.401562	1.306486
H	0.900433	-9.143623	-0.158021
H	-0.648903	-9.149441	0.750822
H	0.931540	-1.443175	-0.546415
$end

$rem
JOBTYPE		SP
EXCHANGE	HF
CORRELATION	pRIMP2
BASIS		cc-pvtz
METHOD		rimp2
AUX_BASIS	rimp2-cc-pvtz
SOLVENT_METHOD	PCM
PURECART	11111
SYMMETRY	false
MEM_TOTAL	110000
SCF_CONVERGENCE = 6
THRESH=10
GUI = 2
$end

$solvent
dielectric 4.90
$end
--------------------------------------------------------------

             Standard Nuclear Orientation (Angstroms)
    I     Atom           X                Y                Z
 ----------------------------------------------------------------
    1      C       0.1233300000    -8.5177020000     0.2962760000
    2      C      -0.4214940000    -7.6415750000    -0.6311430000
    3      S       0.9116110000    -7.6386340000     1.6287950000
    4      C      -0.2332910000    -6.2647850000    -0.3050970000
    5      H      -0.9507370000    -7.9660810000    -1.5359880000
    6      C       0.4785570000    -6.0727140000     0.9311140000
    7      C       0.7813460000    -4.7870490000     1.4057370000
    8      C      -0.6645420000    -5.1628010000    -1.0977470000
    9      C      -0.3578540000    -3.8748170000    -0.6249930000
   10      C       0.3522780000    -3.6839520000     0.6139700000
   11      O      -1.3487090000    -5.4997720000    -2.2263000000
   12      O       1.4696580000    -4.4590550000     2.5388270000
   13      C       1.4193190000    -5.3290630000     3.6631020000
   14      H       1.8282370000    -4.7556940000     4.5167560000
   15      H       2.0437930000    -6.2380950000     3.5207690000
   16      H       0.3770210000    -5.6372620000     3.8955460000
   17      C      -1.4633510000    -4.5722610000    -3.2984920000
   18      H      -1.8782370000    -5.1397430000    -4.1529450000
   19      H      -0.4751760000    -4.1531310000    -3.5858040000
   20      H      -2.1594690000    -3.7395310000    -3.0582300000
   21      C       0.5406640000    -2.3066540000     0.9357610000
   22      S      -0.7808080000    -2.3065010000    -1.3305500000
   23      C       0.0000000000    -1.4351850000     0.0000000000
   24      H       1.0669460000    -1.9781380000     1.8407800000
   25      C       0.0000000000     0.0000000000     0.0000000000
   26      S       0.0004740000     0.9047640000     1.5075410000
   27      C      -0.0002950000     2.4773050000     0.7188730000
   28      C       0.0007520000     0.9044470000    -1.0678720000
   29      C      -0.0015600000     2.2945930000    -0.6864100000
   30      S       0.0036020000     0.6608720000    -2.8055160000
   31      C      -0.0019280000     2.4125460000    -3.0545300000
   32      C      -0.0043810000     3.1208540000    -1.8625510000
   33      F      -0.0091850000     4.4575030000    -1.8190880000
   34      C      -0.0000380000     2.8605700000    -4.4560840000
   35      O       0.0079440000     2.0907240000    -5.4065100000
   36      O      -0.0075010000     4.2110920000    -4.5692250000
   37      C      -0.0022780000     4.7061770000    -5.9162070000
   38      H      -0.0092650000     5.8072070000    -5.8330640000
   39      H      -0.8953810000     4.3528750000    -6.4701680000
   40      H       0.9015210000     4.3633010000    -6.4592930000
   41      H      -0.0017080000     3.4015620000     1.3064860000
   42      H       0.9004330000    -9.1436230000    -0.1580210000
   43      H      -0.6489030000    -9.1494410000     0.7508220000
   44      H       0.9315400000    -1.4431750000    -0.5464150000
 ----------------------------------------------------------------

   11   -2755.3455249943      7.97e-07  Convergence criterion met
 Total energy in the final basis set =    -2755.3455249943
        RIMP2         total energy =     -2760.4361673267 a.u.

                    Orbital Energies (a.u.)
 --------------------------------------------------------------

 Alpha MOs
 -- Occupied --
-92.0141 -91.9964 -91.9799 -91.9596 -26.3426 -20.6148 -20.5881 -20.5881
-20.5613 -11.4093 -11.3814 -11.3100 -11.3099 -11.3098 -11.3015 -11.2973
-11.2939 -11.2888 -11.2846 -11.2846 -11.2845 -11.2836 -11.2832 -11.2749
-11.2734 -11.2607 -11.2594 -11.2510 -11.2397  -9.0126  -8.9966  -8.9822
 -8.9622  -6.6934  -6.6929  -6.6923  -6.6776  -6.6768  -6.6757  -6.6633
 -6.6625  -6.6611  -6.6434  -6.6425  -6.6414  -1.6597  -1.4673  -1.4115
 -1.4099  -1.3699  -1.2296  -1.2028  -1.1751  -1.1367  -1.1015  -1.0482
 -1.0443  -1.0234  -1.0048  -0.9981  -0.9636  -0.9571  -0.9493  -0.9418
 -0.8946  -0.8705  -0.8649  -0.8152  -0.7922  -0.7903  -0.7852  -0.7696
 -0.7574  -0.7367  -0.7246  -0.7090  -0.6978  -0.6958  -0.6847  -0.6814
 -0.6738  -0.6643  -0.6564  -0.6493  -0.6368  -0.6317  -0.6213  -0.6158
 -0.6112  -0.5994  -0.5933  -0.5767  -0.5711  -0.5655  -0.5597  -0.5571
 -0.5498  -0.5317  -0.5310  -0.5262  -0.5148  -0.5107  -0.5080  -0.5011
 -0.4855  -0.4807  -0.4766  -0.4741  -0.4718  -0.4655  -0.4610  -0.4473
 -0.4314  -0.3963  -0.3855  -0.3714  -0.3500  -0.2985  -0.2887  -0.2192

          Ground-State Mulliken Net Atomic Charges

     Atom                 Charge (a.u.)
  ----------------------------------------
      1 C                    -0.070594
      2 C                    -0.251392
      3 S                    -0.132873
      4 C                    -0.047056
      5 H                     0.194633
      6 C                    -0.050909
      7 C                     0.223710
      8 C                     0.229832
      9 C                    -0.075943
     10 C                    -0.047351
     11 O                    -0.334284
     12 O                    -0.343975
     13 C                    -0.082648
     14 H                     0.120120
     15 H                     0.092191
     16 H                     0.093023
     17 C                    -0.088492
     18 H                     0.124065
     19 H                     0.093956
     20 H                     0.090805
     21 C                    -0.285138
     22 S                    -0.088524
     23 C                     0.117707
     24 H                     0.201845
     25 C                    -0.031816
     26 S                     0.083301
     27 C                    -0.206726
     28 C                    -0.031596
     29 C                    -0.112240
     30 S                    -0.006166
     31 C                    -0.159061
     32 C                     0.400596
     33 F                    -0.207619
     34 C                     0.443969
     35 O                    -0.460692
     36 O                    -0.300464
     37 C                    -0.058792
     38 H                     0.121466
     39 H                     0.095154
     40 H                     0.095012
     41 H                     0.216124
     42 H                     0.118544
     43 H                     0.116182
     44 H                     0.202111
  ----------------------------------------
  Sum of atomic charges =     0.000000

                    Cartesian Multipole Moments
 -----------------------------------------------------------------
    Charge (ESU x 10^10)
                 0.0000
    Dipole Moment (Debye)
         X       0.4205      Y       1.6844      Z       2.5016
       Tot       3.0450
    Quadrupole Moments (Debye-Ang)
        XX    -201.2167     XY       2.0686     YY    -170.5688
        XZ       3.7542     YZ      -3.9976     ZZ    -188.5503

 Total job time:  324.66s(wall), 10598.76s(cpu)
        *  Thank you very much for using Q-Chem.  Have a nice day.  *
