 Q-Chem 5.4, Q-Chem, Inc., Pleasanton, CA (2021)
 Q-Chem 5.4.0 for Intel X86 EM64T Linux

User input:
--------------------------------------------------------------
$molecule
0 1
C	-0.296276	-8.517702	0.123330
C	0.631143	-7.641575	-0.421494
S	-1.628795	-7.638634	0.911611
C	0.305097	-6.264785	-0.233291
H	1.535988	-7.966081	-0.950737
C	-0.931114	-6.072714	0.478557
C	-1.405737	-4.787049	0.781346
C	1.097747	-5.162801	-0.664542
C	0.624993	-3.874817	-0.357854
C	-0.613970	-3.683952	0.352278
O	2.226300	-5.499772	-1.348709
O	-2.538827	-4.459055	1.469658
C	-3.663102	-5.329063	1.419319
H	-4.516756	-4.755694	1.828237
H	-3.520769	-6.238095	2.043793
H	-3.895546	-5.637262	0.377021
C	3.298492	-4.572261	-1.463351
H	4.152945	-5.139743	-1.878237
H	3.585804	-4.153131	-0.475176
H	3.058230	-3.739531	-2.159469
C	-0.935761	-2.306654	0.540664
S	1.330550	-2.306501	-0.780808
C	-0.000000	-1.435185	-0.000000
H	-1.840780	-1.978138	1.066946
C	0.000000	0.000000	0.000000
S	0.783786	0.451972	1.507541
C	2.145261	1.238908	0.718873
C	0.783650	0.451572	-1.067872
C	1.986396	1.148648	-0.686410
S	0.574133	0.327317	-2.805516
C	2.088363	1.207943	-3.054530
C	2.700548	1.564221	-1.862551
F	3.855718	2.236706	-1.819088
C	2.477307	1.430318	-4.456084
O	1.814592	1.038482	-5.406510
O	3.643162	2.112042	-4.569225
C	4.074530	2.355061	-5.916207
H	5.024556	2.911627	-5.833064
H	3.322010	2.951860	-6.470168
H	4.229490	1.400910	-6.459293
H	2.944986	1.702260	1.306486
H	0.158021	-9.143623	0.900433
H	-0.750822	-9.149441	-0.648903
H	0.546415	-1.443175	0.931540
$end

$rem
JOBTYPE		SP
EXCHANGE	HF
CORRELATION	pRIMP2
BASIS		cc-pvtz
METHOD		rimp2
AUX_BASIS	rimp2-cc-pvtz
SOLVENT_METHOD	PCM
PURECART	11111
SYMMETRY	false
MEM_TOTAL	110000
SCF_CONVERGENCE = 6
THRESH=10
GUI = 2
$end

$solvent
dielectric 4.90
$end
--------------------------------------------------------------

             Standard Nuclear Orientation (Angstroms)
    I     Atom           X                Y                Z
 ----------------------------------------------------------------
    1      C      -0.2962760000    -8.5177020000     0.1233300000
    2      C       0.6311430000    -7.6415750000    -0.4214940000
    3      S      -1.6287950000    -7.6386340000     0.9116110000
    4      C       0.3050970000    -6.2647850000    -0.2332910000
    5      H       1.5359880000    -7.9660810000    -0.9507370000
    6      C      -0.9311140000    -6.0727140000     0.4785570000
    7      C      -1.4057370000    -4.7870490000     0.7813460000
    8      C       1.0977470000    -5.1628010000    -0.6645420000
    9      C       0.6249930000    -3.8748170000    -0.3578540000
   10      C      -0.6139700000    -3.6839520000     0.3522780000
   11      O       2.2263000000    -5.4997720000    -1.3487090000
   12      O      -2.5388270000    -4.4590550000     1.4696580000
   13      C      -3.6631020000    -5.3290630000     1.4193190000
   14      H      -4.5167560000    -4.7556940000     1.8282370000
   15      H      -3.5207690000    -6.2380950000     2.0437930000
   16      H      -3.8955460000    -5.6372620000     0.3770210000
   17      C       3.2984920000    -4.5722610000    -1.4633510000
   18      H       4.1529450000    -5.1397430000    -1.8782370000
   19      H       3.5858040000    -4.1531310000    -0.4751760000
   20      H       3.0582300000    -3.7395310000    -2.1594690000
   21      C      -0.9357610000    -2.3066540000     0.5406640000
   22      S       1.3305500000    -2.3065010000    -0.7808080000
   23      C       0.0000000000    -1.4351850000     0.0000000000
   24      H      -1.8407800000    -1.9781380000     1.0669460000
   25      C       0.0000000000     0.0000000000     0.0000000000
   26      S       0.7837860000     0.4519720000     1.5075410000
   27      C       2.1452610000     1.2389080000     0.7188730000
   28      C       0.7836500000     0.4515720000    -1.0678720000
   29      C       1.9863960000     1.1486480000    -0.6864100000
   30      S       0.5741330000     0.3273170000    -2.8055160000
   31      C       2.0883630000     1.2079430000    -3.0545300000
   32      C       2.7005480000     1.5642210000    -1.8625510000
   33      F       3.8557180000     2.2367060000    -1.8190880000
   34      C       2.4773070000     1.4303180000    -4.4560840000
   35      O       1.8145920000     1.0384820000    -5.4065100000
   36      O       3.6431620000     2.1120420000    -4.5692250000
   37      C       4.0745300000     2.3550610000    -5.9162070000
   38      H       5.0245560000     2.9116270000    -5.8330640000
   39      H       3.3220100000     2.9518600000    -6.4701680000
   40      H       4.2294900000     1.4009100000    -6.4592930000
   41      H       2.9449860000     1.7022600000     1.3064860000
   42      H       0.1580210000    -9.1436230000     0.9004330000
   43      H      -0.7508220000    -9.1494410000    -0.6489030000
   44      H       0.5464150000    -1.4431750000     0.9315400000
 ----------------------------------------------------------------

   11   -2755.2613578110      8.58e-07  Convergence criterion met
 Total energy in the final basis set =    -2755.2613578110
        RIMP2         total energy =     -2760.3674599947 a.u.

                    Orbital Energies (a.u.)
 --------------------------------------------------------------

 Alpha MOs
 -- Occupied --
-92.0119 -92.0085 -91.9727 -91.9542 -26.3472 -20.6160 -20.5856 -20.5832
-20.5625 -11.4111 -11.3883 -11.3386 -11.3207 -11.3067 -11.3006 -11.2994
-11.2897 -11.2894 -11.2827 -11.2816 -11.2795 -11.2738 -11.2692 -11.2675
-11.2668 -11.2545 -11.2489 -11.2456 -11.2276  -9.0127  -9.0083  -8.9753
 -8.9568  -6.6933  -6.6922  -6.6921  -6.6892  -6.6884  -6.6875  -6.6564
 -6.6555  -6.6542  -6.6381  -6.6372  -6.6362  -1.6641  -1.4685  -1.4077
 -1.4062  -1.3713  -1.2464  -1.1992  -1.1711  -1.1427  -1.0970  -1.0505
 -1.0417  -1.0314  -1.0006  -0.9926  -0.9682  -0.9576  -0.9468  -0.9405
 -0.8906  -0.8740  -0.8570  -0.8229  -0.7971  -0.7865  -0.7812  -0.7653
 -0.7577  -0.7398  -0.7288  -0.7181  -0.6952  -0.6911  -0.6860  -0.6779
 -0.6751  -0.6641  -0.6540  -0.6466  -0.6367  -0.6306  -0.6161  -0.6139
 -0.6100  -0.6033  -0.5892  -0.5776  -0.5715  -0.5666  -0.5581  -0.5538
 -0.5358  -0.5323  -0.5310  -0.5251  -0.5134  -0.5092  -0.5053  -0.4978
 -0.4893  -0.4808  -0.4765  -0.4743  -0.4683  -0.4627  -0.4555  -0.4438
 -0.4258  -0.3944  -0.3787  -0.3670  -0.3525  -0.3091  -0.2853  -0.2119

          Ground-State Mulliken Net Atomic Charges

     Atom                 Charge (a.u.)
  ----------------------------------------
      1 C                    -0.068725
      2 C                    -0.286096
      3 S                    -0.145059
      4 C                    -0.041742
      5 H                     0.189895
      6 C                    -0.055157
      7 C                     0.222358
      8 C                     0.215898
      9 C                    -0.067776
     10 C                    -0.042537
     11 O                    -0.335964
     12 O                    -0.343556
     13 C                    -0.082590
     14 H                     0.119121
     15 H                     0.091904
     16 H                     0.092823
     17 C                    -0.087951
     18 H                     0.122932
     19 H                     0.090054
     20 H                     0.089710
     21 C                    -0.304299
     22 S                    -0.105336
     23 C                     0.097745
     24 H                     0.203206
     25 C                    -0.176493
     26 S                     0.094468
     27 C                    -0.104695
     28 C                     0.047452
     29 C                    -0.121935
     30 S                     0.074977
     31 C                    -0.151010
     32 C                     0.402024
     33 F                    -0.204252
     34 C                     0.447456
     35 O                    -0.461669
     36 O                    -0.301333
     37 C                    -0.058155
     38 H                     0.121535
     39 H                     0.095397
     40 H                     0.095424
     41 H                     0.222204
     42 H                     0.113554
     43 H                     0.111448
     44 H                     0.184744
  ----------------------------------------
  Sum of atomic charges =     0.000000

                    Cartesian Multipole Moments
 -----------------------------------------------------------------
    Charge (ESU x 10^10)
                 0.0000
    Dipole Moment (Debye)
         X       3.9725      Y       4.1513      Z       2.9352
       Tot       6.4521
    Quadrupole Moments (Debye-Ang)
        XX    -170.8271     XY       5.3504     YY    -201.5203
        XZ      -9.4071     YZ      -1.8370     ZZ    -203.2164

 Total job time:  332.07s(wall), 10760.17s(cpu)
        *  Thank you very much for using Q-Chem.  Have a nice day.  *
