 Q-Chem 5.4, Q-Chem, Inc., Pleasanton, CA (2021)
 Q-Chem 5.4.0 for Intel X86 EM64T Linux

User input:
--------------------------------------------------------------
$molecule
0 1
C	0.014560	-8.517702	0.320589
C	-0.180211	-7.641575	-0.737240
S	0.299553	-7.638634	1.842356
C	-0.114873	-6.264785	-0.366488
H	-0.368061	-7.966081	-1.768528
C	0.131236	-6.072714	1.038637
C	0.253435	-4.787049	1.588197
C	-0.249014	-5.162801	-1.258831
C	-0.122513	-3.874817	-0.709695
C	0.121043	-3.683952	0.697430
O	-0.505933	-5.499772	-2.553323
O	0.512697	-4.459055	2.888369
C	0.080869	-5.329063	3.927625
H	0.173159	-4.755694	4.869656
H	0.716363	-6.238095	4.007459
H	-0.978072	-5.637262	3.789565
C	-0.246949	-4.572261	-3.600064
H	-0.344574	-5.139743	-4.544887
H	0.779898	-4.153131	-3.532074
H	-0.983261	-3.739531	-3.612378
C	0.188009	-2.306654	1.064246
S	-0.278644	-2.306501	-1.517360
C	-0.000000	-1.435185	-0.000000
H	0.373017	-1.978138	2.094685
C	0.000000	0.000000	0.000000
S	0.783786	0.451972	1.507541
C	2.145261	1.238908	0.718873
C	0.783650	0.451572	-1.067872
C	1.986396	1.148648	-0.686410
S	0.574133	0.327317	-2.805516
C	2.088363	1.207943	-3.054530
C	2.700548	1.564221	-1.862551
F	3.855718	2.236706	-1.819088
C	2.477307	1.430318	-4.456084
O	1.814592	1.038482	-5.406510
O	3.643162	2.112042	-4.569225
C	4.074530	2.355061	-5.916207
H	5.024556	2.911627	-5.833064
H	3.322010	2.951860	-6.470168
H	4.229490	1.400910	-6.459293
H	2.944986	1.702260	1.306486
H	0.900177	-9.143623	0.159475
H	-0.866566	-9.149441	0.483604
H	1.062246	-1.443175	-0.194856
$end

$rem
JOBTYPE		SP
EXCHANGE	HF
CORRELATION	pRIMP2
BASIS		cc-pvtz
METHOD		rimp2
AUX_BASIS	rimp2-cc-pvtz
SOLVENT_METHOD	PCM
PURECART	11111
SYMMETRY	false
MEM_TOTAL	110000
SCF_CONVERGENCE = 6
THRESH=10
GUI = 2
$end

$solvent
dielectric 4.90
$end
--------------------------------------------------------------

             Standard Nuclear Orientation (Angstroms)
    I     Atom           X                Y                Z
 ----------------------------------------------------------------
    1      C       0.0145600000    -8.5177020000     0.3205890000
    2      C      -0.1802110000    -7.6415750000    -0.7372400000
    3      S       0.2995530000    -7.6386340000     1.8423560000
    4      C      -0.1148730000    -6.2647850000    -0.3664880000
    5      H      -0.3680610000    -7.9660810000    -1.7685280000
    6      C       0.1312360000    -6.0727140000     1.0386370000
    7      C       0.2534350000    -4.7870490000     1.5881970000
    8      C      -0.2490140000    -5.1628010000    -1.2588310000
    9      C      -0.1225130000    -3.8748170000    -0.7096950000
   10      C       0.1210430000    -3.6839520000     0.6974300000
   11      O      -0.5059330000    -5.4997720000    -2.5533230000
   12      O       0.5126970000    -4.4590550000     2.8883690000
   13      C       0.0808690000    -5.3290630000     3.9276250000
   14      H       0.1731590000    -4.7556940000     4.8696560000
   15      H       0.7163630000    -6.2380950000     4.0074590000
   16      H      -0.9780720000    -5.6372620000     3.7895650000
   17      C      -0.2469490000    -4.5722610000    -3.6000640000
   18      H      -0.3445740000    -5.1397430000    -4.5448870000
   19      H       0.7798980000    -4.1531310000    -3.5320740000
   20      H      -0.9832610000    -3.7395310000    -3.6123780000
   21      C       0.1880090000    -2.3066540000     1.0642460000
   22      S      -0.2786440000    -2.3065010000    -1.5173600000
   23      C       0.0000000000    -1.4351850000     0.0000000000
   24      H       0.3730170000    -1.9781380000     2.0946850000
   25      C       0.0000000000     0.0000000000     0.0000000000
   26      S       0.7837860000     0.4519720000     1.5075410000
   27      C       2.1452610000     1.2389080000     0.7188730000
   28      C       0.7836500000     0.4515720000    -1.0678720000
   29      C       1.9863960000     1.1486480000    -0.6864100000
   30      S       0.5741330000     0.3273170000    -2.8055160000
   31      C       2.0883630000     1.2079430000    -3.0545300000
   32      C       2.7005480000     1.5642210000    -1.8625510000
   33      F       3.8557180000     2.2367060000    -1.8190880000
   34      C       2.4773070000     1.4303180000    -4.4560840000
   35      O       1.8145920000     1.0384820000    -5.4065100000
   36      O       3.6431620000     2.1120420000    -4.5692250000
   37      C       4.0745300000     2.3550610000    -5.9162070000
   38      H       5.0245560000     2.9116270000    -5.8330640000
   39      H       3.3220100000     2.9518600000    -6.4701680000
   40      H       4.2294900000     1.4009100000    -6.4592930000
   41      H       2.9449860000     1.7022600000     1.3064860000
   42      H       0.9001770000    -9.1436230000     0.1594750000
   43      H      -0.8665660000    -9.1494410000     0.4836040000
   44      H       1.0622460000    -1.4431750000    -0.1948560000
 ----------------------------------------------------------------

   11   -2755.2609949688      7.47e-07  Convergence criterion met
 Total energy in the final basis set =    -2755.2609949688
        RIMP2         total energy =     -2760.3742686523 a.u.

                    Orbital Energies (a.u.)
 --------------------------------------------------------------

 Alpha MOs
 -- Occupied --
-92.0141 -92.0067 -91.9712 -91.9562 -26.3455 -20.6162 -20.5866 -20.5844
-20.5627 -11.4113 -11.3850 -11.3297 -11.3116 -11.3078 -11.3035 -11.2996
-11.2905 -11.2898 -11.2825 -11.2824 -11.2820 -11.2805 -11.2791 -11.2700
-11.2696 -11.2561 -11.2528 -11.2476 -11.2321  -9.0140  -9.0067  -8.9743
 -8.9588  -6.6946  -6.6938  -6.6936  -6.6876  -6.6868  -6.6858  -6.6553
 -6.6545  -6.6532  -6.6400  -6.6391  -6.6381  -1.6626  -1.4688  -1.4088
 -1.4074  -1.3715  -1.2472  -1.1994  -1.1726  -1.1423  -1.0989  -1.0509
 -1.0437  -1.0298  -1.0011  -0.9942  -0.9682  -0.9553  -0.9492  -0.9420
 -0.8918  -0.8741  -0.8561  -0.8215  -0.7953  -0.7865  -0.7806  -0.7668
 -0.7578  -0.7371  -0.7277  -0.7131  -0.7010  -0.6938  -0.6862  -0.6822
 -0.6752  -0.6687  -0.6542  -0.6473  -0.6372  -0.6313  -0.6180  -0.6145
 -0.6096  -0.6037  -0.5927  -0.5808  -0.5694  -0.5672  -0.5581  -0.5545
 -0.5445  -0.5338  -0.5302  -0.5233  -0.5168  -0.5105  -0.5067  -0.4980
 -0.4841  -0.4827  -0.4784  -0.4737  -0.4693  -0.4600  -0.4551  -0.4446
 -0.4286  -0.3961  -0.3749  -0.3701  -0.3506  -0.3085  -0.2840  -0.2118

          Ground-State Mulliken Net Atomic Charges

     Atom                 Charge (a.u.)
  ----------------------------------------
      1 C                    -0.069320
      2 C                    -0.272780
      3 S                    -0.141221
      4 C                    -0.041771
      5 H                     0.191892
      6 C                    -0.051630
      7 C                     0.221874
      8 C                     0.218433
      9 C                    -0.061781
     10 C                    -0.047183
     11 O                    -0.335666
     12 O                    -0.344724
     13 C                    -0.082901
     14 H                     0.119230
     15 H                     0.092192
     16 H                     0.093017
     17 C                    -0.087299
     18 H                     0.123009
     19 H                     0.091213
     20 H                     0.090340
     21 C                    -0.271769
     22 S                    -0.106051
     23 C                     0.085993
     24 H                     0.197938
     25 C                    -0.151092
     26 S                     0.099440
     27 C                    -0.149025
     28 C                     0.064652
     29 C                    -0.124112
     30 S                     0.056799
     31 C                    -0.157834
     32 C                     0.398440
     33 F                    -0.205981
     34 C                     0.449033
     35 O                    -0.461239
     36 O                    -0.300865
     37 C                    -0.058291
     38 H                     0.121720
     39 H                     0.095432
     40 H                     0.095277
     41 H                     0.221208
     42 H                     0.115506
     43 H                     0.113201
     44 H                     0.166694
  ----------------------------------------
  Sum of atomic charges =     0.000000

                    Cartesian Multipole Moments
 -----------------------------------------------------------------
    Charge (ESU x 10^10)
                -0.0000
    Dipole Moment (Debye)
         X       3.8670      Y       2.8681      Z       2.3107
       Tot       5.3404
    Quadrupole Moments (Debye-Ang)
        XX    -188.5551     XY       8.4924     YY    -194.2813
        XZ      -9.3895     YZ       0.1676     ZZ    -185.9078

 Total job time:  333.59s(wall), 10896.84s(cpu)
        *  Thank you very much for using Q-Chem.  Have a nice day.  *
