 Q-Chem 5.4, Q-Chem, Inc., Pleasanton, CA (2021)
 Q-Chem 5.4.0 for Intel X86 EM64T Linux

User input:
--------------------------------------------------------------
$molecule
0 1
C	0.313191	-8.517702	-0.070009
C	-0.694746	-7.641575	0.305494
S	1.762350	-7.638634	-0.614924
C	-0.340973	-6.264785	0.176768
H	-1.677747	-7.966081	0.669571
C	1.000069	-6.072714	-0.309600
C	1.520060	-4.787049	-0.525372
C	-1.196466	-5.162801	0.463825
C	-0.677639	-3.874817	0.243888
C	0.665815	-3.683952	-0.240312
O	-2.426678	-5.499772	0.941626
O	2.755460	-4.459055	-1.006468
C	3.853913	-5.329063	-0.761666
H	4.765607	-4.755694	-1.016135
H	3.822182	-6.238095	-1.401368
H	3.901833	-5.637262	0.305161
C	-3.502489	-4.572261	0.868342
H	-4.416005	-5.139743	1.128551
H	-3.613841	-4.153131	-0.154712
H	-3.386756	-3.739531	1.595605
C	1.015430	-2.306654	-0.369957
S	-1.445922	-2.306501	0.537898
C	0.000000	-1.435185	0.000000
H	1.998088	-1.978138	-0.731088
C	0.000000	0.000000	0.000000
S	0.452792	0.783312	1.507541
C	1.238397	2.145556	0.718873
C	0.452875	0.782898	-1.067872
C	1.145945	1.987956	-0.686410
S	0.333556	0.570531	-2.805516
C	1.204604	2.090290	-3.054530
C	1.556633	2.704929	-1.862551
F	2.220797	3.864903	-1.819088
C	1.430252	2.477345	-4.456084
O	1.052242	1.806648	-5.406510
O	2.099050	3.650663	-4.569225
C	2.351116	4.076808	-5.916207
H	2.895579	5.033821	-5.833064
H	1.401015	4.217390	-6.470168
H	2.962391	3.327969	-6.459293
H	1.699302	2.946693	1.306486
H	0.000738	-9.143623	-0.914194
H	0.626735	-9.149441	0.769424
H	-0.376353	-1.443175	-1.012272
$end

$rem
JOBTYPE		SP
EXCHANGE	HF
CORRELATION	pRIMP2
BASIS		cc-pvtz
METHOD		rimp2
AUX_BASIS	rimp2-cc-pvtz
SOLVENT_METHOD	PCM
PURECART	11111
SYMMETRY	false
MEM_TOTAL	110000
SCF_CONVERGENCE = 6
THRESH=10
GUI = 2
$end

$solvent
dielectric 4.90
$end
--------------------------------------------------------------

             Standard Nuclear Orientation (Angstroms)
    I     Atom           X                Y                Z
 ----------------------------------------------------------------
    1      C       0.3131910000    -8.5177020000    -0.0700090000
    2      C      -0.6947460000    -7.6415750000     0.3054940000
    3      S       1.7623500000    -7.6386340000    -0.6149240000
    4      C      -0.3409730000    -6.2647850000     0.1767680000
    5      H      -1.6777470000    -7.9660810000     0.6695710000
    6      C       1.0000690000    -6.0727140000    -0.3096000000
    7      C       1.5200600000    -4.7870490000    -0.5253720000
    8      C      -1.1964660000    -5.1628010000     0.4638250000
    9      C      -0.6776390000    -3.8748170000     0.2438880000
   10      C       0.6658150000    -3.6839520000    -0.2403120000
   11      O      -2.4266780000    -5.4997720000     0.9416260000
   12      O       2.7554600000    -4.4590550000    -1.0064680000
   13      C       3.8539130000    -5.3290630000    -0.7616660000
   14      H       4.7656070000    -4.7556940000    -1.0161350000
   15      H       3.8221820000    -6.2380950000    -1.4013680000
   16      H       3.9018330000    -5.6372620000     0.3051610000
   17      C      -3.5024890000    -4.5722610000     0.8683420000
   18      H      -4.4160050000    -5.1397430000     1.1285510000
   19      H      -3.6138410000    -4.1531310000    -0.1547120000
   20      H      -3.3867560000    -3.7395310000     1.5956050000
   21      C       1.0154300000    -2.3066540000    -0.3699570000
   22      S      -1.4459220000    -2.3065010000     0.5378980000
   23      C       0.0000000000    -1.4351850000     0.0000000000
   24      H       1.9980880000    -1.9781380000    -0.7310880000
   25      C       0.0000000000     0.0000000000     0.0000000000
   26      S       0.4527920000     0.7833120000     1.5075410000
   27      C       1.2383970000     2.1455560000     0.7188730000
   28      C       0.4528750000     0.7828980000    -1.0678720000
   29      C       1.1459450000     1.9879560000    -0.6864100000
   30      S       0.3335560000     0.5705310000    -2.8055160000
   31      C       1.2046040000     2.0902900000    -3.0545300000
   32      C       1.5566330000     2.7049290000    -1.8625510000
   33      F       2.2207970000     3.8649030000    -1.8190880000
   34      C       1.4302520000     2.4773450000    -4.4560840000
   35      O       1.0522420000     1.8066480000    -5.4065100000
   36      O       2.0990500000     3.6506630000    -4.5692250000
   37      C       2.3511160000     4.0768080000    -5.9162070000
   38      H       2.8955790000     5.0338210000    -5.8330640000
   39      H       1.4010150000     4.2173900000    -6.4701680000
   40      H       2.9623910000     3.3279690000    -6.4592930000
   41      H       1.6993020000     2.9466930000     1.3064860000
   42      H       0.0007380000    -9.1436230000    -0.9141940000
   43      H       0.6267350000    -9.1494410000     0.7694240000
   44      H      -0.3763530000    -1.4431750000    -1.0122720000
 ----------------------------------------------------------------

   11   -2755.3329265095      6.75e-07  Convergence criterion met
 Total energy in the final basis set =    -2755.3329265095
        RIMP2         total energy =     -2760.4245561177 a.u.

                    Orbital Energies (a.u.)
 --------------------------------------------------------------

 Alpha MOs
 -- Occupied --
-92.0103 -92.0030 -91.9748 -91.9576 -26.3454 -20.6157 -20.5868 -20.5861
-20.5622 -11.4106 -11.3853 -11.3174 -11.3088 -11.3086 -11.3058 -11.2992
-11.2941 -11.2895 -11.2865 -11.2838 -11.2825 -11.2817 -11.2785 -11.2722
-11.2713 -11.2575 -11.2568 -11.2491 -11.2357  -9.0095  -9.0031  -8.9770
 -8.9603  -6.6903  -6.6895  -6.6891  -6.6841  -6.6833  -6.6822  -6.6582
 -6.6573  -6.6560  -6.6415  -6.6406  -6.6395  -1.6623  -1.4682  -1.4096
 -1.4084  -1.3709  -1.2320  -1.2017  -1.1727  -1.1381  -1.1002  -1.0476
 -1.0450  -1.0244  -1.0024  -0.9964  -0.9632  -0.9586  -0.9484  -0.9417
 -0.8924  -0.8715  -0.8636  -0.8132  -0.7973  -0.7904  -0.7835  -0.7672
 -0.7593  -0.7350  -0.7271  -0.7109  -0.7008  -0.6945  -0.6857  -0.6796
 -0.6748  -0.6652  -0.6551  -0.6481  -0.6356  -0.6299  -0.6195  -0.6146
 -0.6112  -0.6000  -0.5928  -0.5768  -0.5716  -0.5657  -0.5571  -0.5551
 -0.5467  -0.5318  -0.5271  -0.5256  -0.5125  -0.5092  -0.5067  -0.5011
 -0.4849  -0.4820  -0.4760  -0.4748  -0.4686  -0.4683  -0.4595  -0.4455
 -0.4213  -0.4004  -0.3838  -0.3693  -0.3515  -0.3046  -0.2884  -0.2197

          Ground-State Mulliken Net Atomic Charges

     Atom                 Charge (a.u.)
  ----------------------------------------
      1 C                    -0.070141
      2 C                    -0.263264
      3 S                    -0.136309
      4 C                    -0.044457
      5 H                     0.192941
      6 C                    -0.053022
      7 C                     0.222618
      8 C                     0.228464
      9 C                    -0.080611
     10 C                    -0.039845
     11 O                    -0.335580
     12 O                    -0.343219
     13 C                    -0.082649
     14 H                     0.119835
     15 H                     0.092189
     16 H                     0.092540
     17 C                    -0.086326
     18 H                     0.122913
     19 H                     0.092101
     20 H                     0.090050
     21 C                    -0.269819
     22 S                    -0.076922
     23 C                     0.062932
     24 H                     0.208507
     25 C                    -0.067521
     26 S                     0.089702
     27 C                    -0.169797
     28 C                    -0.039133
     29 C                    -0.086609
     30 S                     0.019308
     31 C                    -0.157049
     32 C                     0.397431
     33 F                    -0.204964
     34 C                     0.446513
     35 O                    -0.461024
     36 O                    -0.301075
     37 C                    -0.058345
     38 H                     0.121600
     39 H                     0.095304
     40 H                     0.095294
     41 H                     0.218020
     42 H                     0.116939
     43 H                     0.114498
     44 H                     0.187983
  ----------------------------------------
  Sum of atomic charges =     0.000000

                    Cartesian Multipole Moments
 -----------------------------------------------------------------
    Charge (ESU x 10^10)
                 0.0000
    Dipole Moment (Debye)
         X       1.3659      Y       3.1576      Z       2.2639
       Tot       4.1184
    Quadrupole Moments (Debye-Ang)
        XX    -179.3722     XY      10.6086     YY    -180.0410
        XZ      -4.0294     YZ      -7.8936     ZZ    -205.9720

 Total job time:  341.24s(wall), 10730.36s(cpu)
        *  Thank you very much for using Q-Chem.  Have a nice day.  *
