 Q-Chem 5.4, Q-Chem, Inc., Pleasanton, CA (2021)
 Q-Chem 5.4.0 for Intel X86 EM64T Linux

User input:
--------------------------------------------------------------
$molecule
0 1
C	1.438381	-8.395476	0.318247
C	1.278244	-7.534070	-0.757333
S	1.301894	-7.526914	1.866383
C	1.039133	-6.178202	-0.380867
H	1.328769	-7.854673	-1.805573
C	1.004177	-5.989332	1.045647
C	0.805458	-4.718873	1.608077
C	0.870278	-5.088992	-1.282948
C	0.675402	-3.815501	-0.720187
C	0.637837	-3.628315	0.707853
O	0.900992	-5.425746	-2.602386
O	0.777604	-4.390731	2.933517
C	0.332149	-5.352705	3.881999
H	0.160995	-4.800670	4.825744
H	1.092680	-6.141658	4.070972
H	-0.617733	-5.833149	3.562152
C	1.170109	-4.436474	-3.588253
H	1.335544	-4.983539	-4.535674
H	2.081585	-3.850160	-3.342986
H	0.313504	-3.741940	-3.728239
C	0.400889	-2.271550	1.080725
S	0.389762	-2.273357	-1.542694
C	0.249217	-1.413382	0.000000
H	0.347057	-1.947458	2.127635
C	0.000000	0.000000	0.000000
S	0.157577	0.890937	1.507541
C	0.429889	2.439720	0.718873
C	0.157797	0.890576	-1.067872
C	0.396915	2.260004	-0.686410
S	0.118307	0.650207	-2.805516
C	0.417036	2.376229	-3.054530
C	0.537616	3.074202	-1.862551
F	0.764992	4.391378	-1.819088
C	0.496696	2.817118	-4.456084
O	0.370874	2.057582	-5.406510
O	0.723861	4.148418	-4.569225
C	0.814976	4.635075	-5.916207
H	0.999286	5.720591	-5.833064
H	-0.125909	4.442226	-6.470168
H	1.645504	4.140465	-6.459293
H	0.588993	3.350182	1.306486
H	2.433535	-8.855580	0.313367
H	0.665647	-9.173214	0.325780
H	1.314143	-1.233719	-0.007439
$end

$rem
JOBTYPE		SP
EXCHANGE	HF
CORRELATION	pRIMP2
BASIS		cc-pvtz
METHOD		rimp2
AUX_BASIS	rimp2-cc-pvtz
SOLVENT_METHOD	PCM
PURECART	11111
SYMMETRY	false
MEM_TOTAL	110000
SCF_CONVERGENCE = 6
THRESH=10
GUI = 2
$end

$solvent
dielectric 4.90
$end
--------------------------------------------------------------

             Standard Nuclear Orientation (Angstroms)
    I     Atom           X                Y                Z
 ----------------------------------------------------------------
    1      C       1.4383810000    -8.3954760000     0.3182470000
    2      C       1.2782440000    -7.5340700000    -0.7573330000
    3      S       1.3018940000    -7.5269140000     1.8663830000
    4      C       1.0391330000    -6.1782020000    -0.3808670000
    5      H       1.3287690000    -7.8546730000    -1.8055730000
    6      C       1.0041770000    -5.9893320000     1.0456470000
    7      C       0.8054580000    -4.7188730000     1.6080770000
    8      C       0.8702780000    -5.0889920000    -1.2829480000
    9      C       0.6754020000    -3.8155010000    -0.7201870000
   10      C       0.6378370000    -3.6283150000     0.7078530000
   11      O       0.9009920000    -5.4257460000    -2.6023860000
   12      O       0.7776040000    -4.3907310000     2.9335170000
   13      C       0.3321490000    -5.3527050000     3.8819990000
   14      H       0.1609950000    -4.8006700000     4.8257440000
   15      H       1.0926800000    -6.1416580000     4.0709720000
   16      H      -0.6177330000    -5.8331490000     3.5621520000
   17      C       1.1701090000    -4.4364740000    -3.5882530000
   18      H       1.3355440000    -4.9835390000    -4.5356740000
   19      H       2.0815850000    -3.8501600000    -3.3429860000
   20      H       0.3135040000    -3.7419400000    -3.7282390000
   21      C       0.4008890000    -2.2715500000     1.0807250000
   22      S       0.3897620000    -2.2733570000    -1.5426940000
   23      C       0.2492170000    -1.4133820000     0.0000000000
   24      H       0.3470570000    -1.9474580000     2.1276350000
   25      C       0.0000000000     0.0000000000     0.0000000000
   26      S       0.1575770000     0.8909370000     1.5075410000
   27      C       0.4298890000     2.4397200000     0.7188730000
   28      C       0.1577970000     0.8905760000    -1.0678720000
   29      C       0.3969150000     2.2600040000    -0.6864100000
   30      S       0.1183070000     0.6502070000    -2.8055160000
   31      C       0.4170360000     2.3762290000    -3.0545300000
   32      C       0.5376160000     3.0742020000    -1.8625510000
   33      F       0.7649920000     4.3913780000    -1.8190880000
   34      C       0.4966960000     2.8171180000    -4.4560840000
   35      O       0.3708740000     2.0575820000    -5.4065100000
   36      O       0.7238610000     4.1484180000    -4.5692250000
   37      C       0.8149760000     4.6350750000    -5.9162070000
   38      H       0.9992860000     5.7205910000    -5.8330640000
   39      H      -0.1259090000     4.4422260000    -6.4701680000
   40      H       1.6455040000     4.1404650000    -6.4592930000
   41      H       0.5889930000     3.3501820000     1.3064860000
   42      H       2.4335350000    -8.8555800000     0.3133670000
   43      H       0.6656470000    -9.1732140000     0.3257800000
   44      H       1.3141430000    -1.2337190000    -0.0074390000
 ----------------------------------------------------------------

   11   -2755.3367496063      8.33e-07  Convergence criterion met
 Total energy in the final basis set =    -2755.3367496063
        RIMP2         total energy =     -2760.4298142668 a.u.

                    Orbital Energies (a.u.)
 --------------------------------------------------------------

 Alpha MOs
 -- Occupied --
-92.0132 -91.9943 -91.9799 -91.9602 -26.3419 -20.6147 -20.5886 -20.5883
-20.5612 -11.4091 -11.3802 -11.3109 -11.3108 -11.3102 -11.3003 -11.2973
-11.2911 -11.2887 -11.2850 -11.2849 -11.2847 -11.2845 -11.2837 -11.2757
-11.2723 -11.2619 -11.2599 -11.2517 -11.2412  -9.0121  -8.9947  -8.9824
 -8.9627  -6.6929  -6.6923  -6.6918  -6.6757  -6.6750  -6.6738  -6.6635
 -6.6627  -6.6613  -6.6440  -6.6430  -6.6420  -1.6591  -1.4671  -1.4120
 -1.4101  -1.3698  -1.2313  -1.2024  -1.1758  -1.1375  -1.1012  -1.0490
 -1.0442  -1.0242  -1.0047  -0.9981  -0.9639  -0.9567  -0.9499  -0.9421
 -0.8951  -0.8693  -0.8647  -0.8156  -0.7921  -0.7905  -0.7846  -0.7702
 -0.7565  -0.7376  -0.7241  -0.7109  -0.6967  -0.6941  -0.6845  -0.6819
 -0.6737  -0.6648  -0.6567  -0.6496  -0.6383  -0.6316  -0.6219  -0.6162
 -0.6112  -0.5998  -0.5936  -0.5768  -0.5712  -0.5666  -0.5604  -0.5564
 -0.5495  -0.5330  -0.5310  -0.5270  -0.5165  -0.5121  -0.5085  -0.5011
 -0.4847  -0.4789  -0.4772  -0.4734  -0.4704  -0.4657  -0.4593  -0.4482
 -0.4326  -0.3982  -0.3827  -0.3727  -0.3508  -0.3006  -0.2860  -0.2182

          Ground-State Mulliken Net Atomic Charges

     Atom                 Charge (a.u.)
  ----------------------------------------
      1 C                    -0.070904
      2 C                    -0.247110
      3 S                    -0.131758
      4 C                    -0.050632
      5 H                     0.195195
      6 C                    -0.048405
      7 C                     0.217814
      8 C                     0.232848
      9 C                    -0.068206
     10 C                    -0.026967
     11 O                    -0.334010
     12 O                    -0.344176
     13 C                    -0.082729
     14 H                     0.120189
     15 H                     0.092163
     16 H                     0.093202
     17 C                    -0.089386
     18 H                     0.124981
     19 H                     0.093552
     20 H                     0.091863
     21 C                    -0.326955
     22 S                    -0.113136
     23 C                     0.135217
     24 H                     0.197609
     25 C                     0.030405
     26 S                     0.074189
     27 C                    -0.223276
     28 C                    -0.067094
     29 C                    -0.103766
     30 S                    -0.006300
     31 C                    -0.164190
     32 C                     0.407348
     33 F                    -0.207965
     34 C                     0.443619
     35 O                    -0.460506
     36 O                    -0.300661
     37 C                    -0.058760
     38 H                     0.121424
     39 H                     0.095191
     40 H                     0.094997
     41 H                     0.216900
     42 H                     0.119150
     43 H                     0.116791
     44 H                     0.212244
  ----------------------------------------
  Sum of atomic charges =     0.000000

                    Cartesian Multipole Moments
 -----------------------------------------------------------------
    Charge (ESU x 10^10)
                 0.0000
    Dipole Moment (Debye)
         X       1.2379      Y       1.3248      Z       2.6954
       Tot       3.2485
    Quadrupole Moments (Debye-Ang)
        XX    -198.9909     XY      -0.3237     YY    -169.3411
        XZ      -7.7717     YZ      -4.1354     ZZ    -189.6260

 Total job time:  366.17s(wall), 12121.45s(cpu)
        *  Thank you very much for using Q-Chem.  Have a nice day.  *
