 Q-Chem 5.4, Q-Chem, Inc., Pleasanton, CA (2021)
 Q-Chem 5.4.0 for Intel X86 EM64T Linux

User input:
--------------------------------------------------------------
$molecule
0 1
C	0.014560	-8.517702	0.320589
C	-0.180211	-7.641575	-0.737240
S	0.299553	-7.638634	1.842356
C	-0.114873	-6.264785	-0.366488
H	-0.368061	-7.966081	-1.768528
C	0.131236	-6.072714	1.038637
C	0.253435	-4.787049	1.588197
C	-0.249014	-5.162801	-1.258831
C	-0.122513	-3.874817	-0.709695
C	0.121043	-3.683952	0.697430
O	-0.505933	-5.499772	-2.553323
O	0.512697	-4.459055	2.888369
C	0.080869	-5.329063	3.927625
H	0.173159	-4.755694	4.869656
H	0.716363	-6.238095	4.007459
H	-0.978072	-5.637262	3.789565
C	-0.246949	-4.572261	-3.600064
H	-0.344574	-5.139743	-4.544887
H	0.779898	-4.153131	-3.532074
H	-0.983261	-3.739531	-3.612378
C	0.188009	-2.306654	1.064246
S	-0.278644	-2.306501	-1.517360
C	-0.000000	-1.435185	-0.000000
H	0.373017	-1.978138	2.094685
C	0.000000	0.000000	0.000000
S	0.382799	0.819795	1.507541
C	1.046687	2.245325	0.718873
C	0.382918	0.819389	-1.067872
C	0.968323	2.080267	-0.686410
S	0.282561	0.597432	-2.805516
C	1.017839	2.187324	-3.054530
C	1.314960	2.830306	-1.862551
F	1.875498	4.043751	-1.819088
C	1.208895	2.592573	-4.456084
O	0.890778	1.891482	-5.406510
O	1.772886	3.819715	-4.569225
C	1.986852	4.266207	-5.916207
H	2.445834	5.267032	-5.833064
H	1.028114	4.323448	-6.470168
H	2.661066	3.573494	-6.459293
H	1.436015	3.083584	1.306486
H	0.900177	-9.143623	0.159475
H	-0.866566	-9.149441	0.483604
H	1.062246	-1.443175	-0.194856
$end

$rem
JOBTYPE		SP
EXCHANGE	HF
CORRELATION	pRIMP2
BASIS		cc-pvtz
METHOD		rimp2
AUX_BASIS	rimp2-cc-pvtz
SOLVENT_METHOD	PCM
PURECART	11111
SYMMETRY	false
MEM_TOTAL	110000
SCF_CONVERGENCE = 6
THRESH=10
GUI = 2
$end

$solvent
dielectric 4.90
$end
--------------------------------------------------------------

             Standard Nuclear Orientation (Angstroms)
    I     Atom           X                Y                Z
 ----------------------------------------------------------------
    1      C       0.0145600000    -8.5177020000     0.3205890000
    2      C      -0.1802110000    -7.6415750000    -0.7372400000
    3      S       0.2995530000    -7.6386340000     1.8423560000
    4      C      -0.1148730000    -6.2647850000    -0.3664880000
    5      H      -0.3680610000    -7.9660810000    -1.7685280000
    6      C       0.1312360000    -6.0727140000     1.0386370000
    7      C       0.2534350000    -4.7870490000     1.5881970000
    8      C      -0.2490140000    -5.1628010000    -1.2588310000
    9      C      -0.1225130000    -3.8748170000    -0.7096950000
   10      C       0.1210430000    -3.6839520000     0.6974300000
   11      O      -0.5059330000    -5.4997720000    -2.5533230000
   12      O       0.5126970000    -4.4590550000     2.8883690000
   13      C       0.0808690000    -5.3290630000     3.9276250000
   14      H       0.1731590000    -4.7556940000     4.8696560000
   15      H       0.7163630000    -6.2380950000     4.0074590000
   16      H      -0.9780720000    -5.6372620000     3.7895650000
   17      C      -0.2469490000    -4.5722610000    -3.6000640000
   18      H      -0.3445740000    -5.1397430000    -4.5448870000
   19      H       0.7798980000    -4.1531310000    -3.5320740000
   20      H      -0.9832610000    -3.7395310000    -3.6123780000
   21      C       0.1880090000    -2.3066540000     1.0642460000
   22      S      -0.2786440000    -2.3065010000    -1.5173600000
   23      C       0.0000000000    -1.4351850000     0.0000000000
   24      H       0.3730170000    -1.9781380000     2.0946850000
   25      C       0.0000000000     0.0000000000     0.0000000000
   26      S       0.3827990000     0.8197950000     1.5075410000
   27      C       1.0466870000     2.2453250000     0.7188730000
   28      C       0.3829180000     0.8193890000    -1.0678720000
   29      C       0.9683230000     2.0802670000    -0.6864100000
   30      S       0.2825610000     0.5974320000    -2.8055160000
   31      C       1.0178390000     2.1873240000    -3.0545300000
   32      C       1.3149600000     2.8303060000    -1.8625510000
   33      F       1.8754980000     4.0437510000    -1.8190880000
   34      C       1.2088950000     2.5925730000    -4.4560840000
   35      O       0.8907780000     1.8914820000    -5.4065100000
   36      O       1.7728860000     3.8197150000    -4.5692250000
   37      C       1.9868520000     4.2662070000    -5.9162070000
   38      H       2.4458340000     5.2670320000    -5.8330640000
   39      H       1.0281140000     4.3234480000    -6.4701680000
   40      H       2.6610660000     3.5734940000    -6.4592930000
   41      H       1.4360150000     3.0835840000     1.3064860000
   42      H       0.9001770000    -9.1436230000     0.1594750000
   43      H      -0.8665660000    -9.1494410000     0.4836040000
   44      H       1.0622460000    -1.4431750000    -0.1948560000
 ----------------------------------------------------------------

   11   -2755.3323238714      8.12e-07  Convergence criterion met
 Total energy in the final basis set =    -2755.3323238714
        RIMP2         total energy =     -2760.4271197752 a.u.

                    Orbital Energies (a.u.)
 --------------------------------------------------------------

 Alpha MOs
 -- Occupied --
-92.0139 -91.9958 -91.9792 -91.9597 -26.3423 -20.6149 -20.5882 -20.5881
-20.5614 -11.4093 -11.3807 -11.3101 -11.3099 -11.3090 -11.3019 -11.2975
-11.2924 -11.2888 -11.2850 -11.2848 -11.2845 -11.2843 -11.2836 -11.2750
-11.2724 -11.2610 -11.2595 -11.2512 -11.2401  -9.0127  -8.9961  -8.9817
 -8.9623  -6.6936  -6.6930  -6.6924  -6.6770  -6.6763  -6.6751  -6.6628
 -6.6620  -6.6607  -6.6435  -6.6426  -6.6416  -1.6594  -1.4673  -1.4115
 -1.4099  -1.3699  -1.2322  -1.2021  -1.1753  -1.1378  -1.1009  -1.0486
 -1.0445  -1.0244  -1.0042  -0.9978  -0.9642  -0.9566  -0.9496  -0.9422
 -0.8947  -0.8697  -0.8640  -0.8160  -0.7919  -0.7903  -0.7844  -0.7697
 -0.7568  -0.7372  -0.7244  -0.7102  -0.6962  -0.6959  -0.6847  -0.6819
 -0.6738  -0.6653  -0.6564  -0.6493  -0.6378  -0.6315  -0.6214  -0.6160
 -0.6112  -0.6000  -0.5938  -0.5767  -0.5710  -0.5663  -0.5601  -0.5560
 -0.5496  -0.5326  -0.5306  -0.5268  -0.5162  -0.5117  -0.5083  -0.5007
 -0.4847  -0.4796  -0.4772  -0.4733  -0.4707  -0.4654  -0.4595  -0.4477
 -0.4324  -0.3983  -0.3819  -0.3724  -0.3506  -0.3012  -0.2860  -0.2175

          Ground-State Mulliken Net Atomic Charges

     Atom                 Charge (a.u.)
  ----------------------------------------
      1 C                    -0.070729
      2 C                    -0.250307
      3 S                    -0.132771
      4 C                    -0.048069
      5 H                     0.194868
      6 C                    -0.048574
      7 C                     0.217982
      8 C                     0.230763
      9 C                    -0.067825
     10 C                    -0.034170
     11 O                    -0.334250
     12 O                    -0.344165
     13 C                    -0.082742
     14 H                     0.120084
     15 H                     0.092242
     16 H                     0.093142
     17 C                    -0.088707
     18 H                     0.124459
     19 H                     0.093563
     20 H                     0.091307
     21 C                    -0.310151
     22 S                    -0.104935
     23 C                     0.104053
     24 H                     0.198869
     25 C                     0.013360
     26 S                     0.075960
     27 C                    -0.215699
     28 C                    -0.043598
     29 C                    -0.105720
     30 S                    -0.001540
     31 C                    -0.163374
     32 C                     0.405101
     33 F                    -0.207605
     34 C                     0.445107
     35 O                    -0.460557
     36 O                    -0.300776
     37 C                    -0.058675
     38 H                     0.121436
     39 H                     0.095204
     40 H                     0.095012
     41 H                     0.217236
     42 H                     0.118720
     43 H                     0.116364
     44 H                     0.210108
  ----------------------------------------
  Sum of atomic charges =     0.000000

                    Cartesian Multipole Moments
 -----------------------------------------------------------------
    Charge (ESU x 10^10)
                 0.0000
    Dipole Moment (Debye)
         X       1.6124      Y       1.3292      Z       2.5923
       Tot       3.3297
    Quadrupole Moments (Debye-Ang)
        XX    -198.7905     XY       6.4617     YY    -172.6942
        XZ      -6.0802     YZ      -2.6293     ZZ    -187.9742

 Total job time:  343.88s(wall), 11732.05s(cpu)
        *  Thank you very much for using Q-Chem.  Have a nice day.  *
