 Q-Chem 5.4, Q-Chem, Inc., Pleasanton, CA (2021)
 Q-Chem 5.4.0 for Intel X86 EM64T Linux

User input:
--------------------------------------------------------------
$molecule
0 1
C	-0.318247	-8.517702	-0.041330
C	0.757333	-7.641575	-0.049453
S	-1.866383	-7.638634	-0.024919
C	0.380867	-6.264785	-0.049488
H	1.805573	-7.966081	-0.055368
C	-1.045647	-6.072714	-0.051115
C	-1.608077	-4.787049	-0.026203
C	1.282948	-5.162801	-0.026637
C	0.720187	-3.874817	0.002586
C	-0.707853	-3.683952	-0.001903
O	2.602386	-5.499772	-0.054867
O	-2.933517	-4.459055	0.003348
C	-3.881999	-5.329063	-0.602384
H	-4.825744	-4.755694	-0.675079
H	-4.070972	-6.238095	0.009592
H	-3.562152	-5.637262	-1.621263
C	3.588253	-4.572261	0.381947
H	4.535674	-5.139743	0.449872
H	3.342986	-4.153131	1.381388
H	3.728239	-3.739531	-0.341040
C	-1.080725	-2.306654	0.000348
S	1.542694	-2.306501	-0.010924
C	0.000000	-1.435185	0.000000
H	-2.127635	-1.978138	0.003612
C	0.000000	0.000000	0.000000
S	0.693394	0.581209	1.507541
C	1.897536	1.592607	0.718873
C	0.693330	0.580791	-1.067872
C	1.756758	1.476132	-0.686410
S	0.508573	0.422041	-2.805516
C	1.846879	1.552232	-3.054530
C	2.387897	2.009402	-1.862551
F	3.408741	2.872264	-1.819088
C	2.191300	1.838768	-4.456084
O	1.606694	1.337806	-5.406510
O	3.221062	2.712584	-4.569225
C	3.603677	3.026817	-5.916207
H	4.442623	3.739898	-5.833064
H	2.758956	3.483875	-6.470168
H	3.921969	2.114070	-6.459293
H	2.604650	2.187790	1.306486
H	-0.313367	-9.143623	0.858809
H	-0.325780	-9.149441	-0.937378
H	0.007439	-1.443175	1.079945
$end

$rem
JOBTYPE		SP
EXCHANGE	HF
CORRELATION	pRIMP2
BASIS		cc-pvtz
METHOD		rimp2
AUX_BASIS	rimp2-cc-pvtz
SOLVENT_METHOD	PCM
PURECART	11111
SYMMETRY	false
MEM_TOTAL	110000
SCF_CONVERGENCE = 6
THRESH=10
GUI = 2
$end

$solvent
dielectric 4.90
$end
--------------------------------------------------------------

             Standard Nuclear Orientation (Angstroms)
    I     Atom           X                Y                Z
 ----------------------------------------------------------------
    1      C      -0.3182470000    -8.5177020000    -0.0413300000
    2      C       0.7573330000    -7.6415750000    -0.0494530000
    3      S      -1.8663830000    -7.6386340000    -0.0249190000
    4      C       0.3808670000    -6.2647850000    -0.0494880000
    5      H       1.8055730000    -7.9660810000    -0.0553680000
    6      C      -1.0456470000    -6.0727140000    -0.0511150000
    7      C      -1.6080770000    -4.7870490000    -0.0262030000
    8      C       1.2829480000    -5.1628010000    -0.0266370000
    9      C       0.7201870000    -3.8748170000     0.0025860000
   10      C      -0.7078530000    -3.6839520000    -0.0019030000
   11      O       2.6023860000    -5.4997720000    -0.0548670000
   12      O      -2.9335170000    -4.4590550000     0.0033480000
   13      C      -3.8819990000    -5.3290630000    -0.6023840000
   14      H      -4.8257440000    -4.7556940000    -0.6750790000
   15      H      -4.0709720000    -6.2380950000     0.0095920000
   16      H      -3.5621520000    -5.6372620000    -1.6212630000
   17      C       3.5882530000    -4.5722610000     0.3819470000
   18      H       4.5356740000    -5.1397430000     0.4498720000
   19      H       3.3429860000    -4.1531310000     1.3813880000
   20      H       3.7282390000    -3.7395310000    -0.3410400000
   21      C      -1.0807250000    -2.3066540000     0.0003480000
   22      S       1.5426940000    -2.3065010000    -0.0109240000
   23      C       0.0000000000    -1.4351850000     0.0000000000
   24      H      -2.1276350000    -1.9781380000     0.0036120000
   25      C       0.0000000000     0.0000000000     0.0000000000
   26      S       0.6933940000     0.5812090000     1.5075410000
   27      C       1.8975360000     1.5926070000     0.7188730000
   28      C       0.6933300000     0.5807910000    -1.0678720000
   29      C       1.7567580000     1.4761320000    -0.6864100000
   30      S       0.5085730000     0.4220410000    -2.8055160000
   31      C       1.8468790000     1.5522320000    -3.0545300000
   32      C       2.3878970000     2.0094020000    -1.8625510000
   33      F       3.4087410000     2.8722640000    -1.8190880000
   34      C       2.1913000000     1.8387680000    -4.4560840000
   35      O       1.6066940000     1.3378060000    -5.4065100000
   36      O       3.2210620000     2.7125840000    -4.5692250000
   37      C       3.6036770000     3.0268170000    -5.9162070000
   38      H       4.4426230000     3.7398980000    -5.8330640000
   39      H       2.7589560000     3.4838750000    -6.4701680000
   40      H       3.9219690000     2.1140700000    -6.4592930000
   41      H       2.6046500000     2.1877900000     1.3064860000
   42      H      -0.3133670000    -9.1436230000     0.8588090000
   43      H      -0.3257800000    -9.1494410000    -0.9373780000
   44      H       0.0074390000    -1.4431750000     1.0799450000
 ----------------------------------------------------------------

   11   -2755.2973631565      7.15e-07  Convergence criterion met
 Total energy in the final basis set =    -2755.2973631565
        RIMP2         total energy =     -2760.3946763447 a.u.

                    Orbital Energies (a.u.)
 --------------------------------------------------------------

 Alpha MOs
 -- Occupied --
-92.0146 -92.0069 -91.9721 -91.9552 -26.3461 -20.6156 -20.5858 -20.5845
-20.5620 -11.4105 -11.3866 -11.3305 -11.3139 -11.3072 -11.3030 -11.2987
-11.2894 -11.2876 -11.2832 -11.2817 -11.2806 -11.2768 -11.2733 -11.2688
-11.2682 -11.2556 -11.2504 -11.2469 -11.2309  -9.0142  -9.0066  -8.9747
 -8.9578  -6.6949  -6.6940  -6.6937  -6.6876  -6.6868  -6.6858  -6.6558
 -6.6550  -6.6537  -6.6391  -6.6382  -6.6371  -1.6631  -1.4681  -1.4082
 -1.4071  -1.3708  -1.2377  -1.2001  -1.1713  -1.1408  -1.0971  -1.0484
 -1.0425  -1.0281  -1.0013  -0.9935  -0.9658  -0.9586  -0.9469  -0.9400
 -0.8911  -0.8721  -0.8602  -0.8191  -0.7974  -0.7872  -0.7824  -0.7656
 -0.7575  -0.7382  -0.7278  -0.7181  -0.6958  -0.6883  -0.6854  -0.6780
 -0.6747  -0.6615  -0.6544  -0.6470  -0.6338  -0.6299  -0.6173  -0.6139
 -0.6109  -0.6017  -0.5903  -0.5757  -0.5710  -0.5622  -0.5581  -0.5535
 -0.5372  -0.5323  -0.5315  -0.5240  -0.5120  -0.5090  -0.5056  -0.4987
 -0.4866  -0.4828  -0.4757  -0.4749  -0.4709  -0.4642  -0.4588  -0.4441
 -0.4196  -0.3979  -0.3844  -0.3676  -0.3485  -0.3098  -0.2867  -0.2168

          Ground-State Mulliken Net Atomic Charges

     Atom                 Charge (a.u.)
  ----------------------------------------
      1 C                    -0.069272
      2 C                    -0.276153
      3 S                    -0.142471
      4 C                    -0.041449
      5 H                     0.191185
      6 C                    -0.056933
      7 C                     0.226074
      8 C                     0.221236
      9 C                    -0.071283
     10 C                    -0.056728
     11 O                    -0.335486
     12 O                    -0.342992
     13 C                    -0.082529
     14 H                     0.119425
     15 H                     0.091683
     16 H                     0.092898
     17 C                    -0.086612
     18 H                     0.122745
     19 H                     0.090573
     20 H                     0.089691
     21 C                    -0.263261
     22 S                    -0.089097
     23 C                     0.019751
     24 H                     0.205558
     25 C                    -0.114665
     26 S                     0.102069
     27 C                    -0.135050
     28 C                     0.026812
     29 C                    -0.095813
     30 S                     0.048802
     31 C                    -0.152863
     32 C                     0.395917
     33 F                    -0.204489
     34 C                     0.447729
     35 O                    -0.461682
     36 O                    -0.301283
     37 C                    -0.058232
     38 H                     0.121425
     39 H                     0.095224
     40 H                     0.095448
     41 H                     0.221072
     42 H                     0.114716
     43 H                     0.112657
     44 H                     0.185650
  ----------------------------------------
  Sum of atomic charges =     0.000000

                    Cartesian Multipole Moments
 -----------------------------------------------------------------
    Charge (ESU x 10^10)
                 0.0000
    Dipole Moment (Debye)
         X       3.0322      Y       3.9938      Z       3.1648
       Tot       5.9296
    Quadrupole Moments (Debye-Ang)
        XX    -175.4972     XY       5.4720     YY    -193.5490
        XZ       0.1756     YZ      -4.6200     ZZ    -202.5519

 Total job time:  331.25s(wall), 10724.89s(cpu)
        *  Thank you very much for using Q-Chem.  Have a nice day.  *
