 Q-Chem 5.4, Q-Chem, Inc., Pleasanton, CA (2021)
 Q-Chem 5.4.0 for Intel X86 EM64T Linux

User input:
--------------------------------------------------------------
$molecule
0 1
C	-0.306235	-8.517702	-0.095966
C	0.754415	-7.641575	0.082807
S	-1.833702	-7.638634	-0.348635
C	0.383675	-6.264785	0.017401
H	1.787757	-7.966081	0.259008
C	-1.020885	-6.072714	-0.231913
C	-1.579097	-4.787049	-0.305044
C	1.268082	-5.162801	0.196549
C	0.708796	-3.874817	0.127606
C	-0.696769	-3.683952	-0.124792
O	2.572378	-5.499772	0.397867
O	-2.889532	-4.459055	-0.506103
C	-3.718420	-5.329063	-1.267335
H	-4.635204	-4.755694	-1.502804
H	-4.010790	-6.238095	-0.697471
H	-3.226506	-5.637262	-2.215194
C	3.467415	-4.572261	0.999238
H	4.388648	-5.139743	1.230649
H	3.052323	-4.153131	1.940905
H	3.730819	-3.739531	0.311543
C	-1.064366	-2.306654	-0.187323
S	1.521154	-2.306501	0.257128
C	0.000000	-1.435185	0.000000
H	-2.095939	-1.978138	-0.365903
C	0.000000	0.000000	0.000000
S	0.452792	0.783312	1.507541
C	1.238397	2.145556	0.718873
C	0.452875	0.782898	-1.067872
C	1.145945	1.987956	-0.686410
S	0.333556	0.570531	-2.805516
C	1.204604	2.090290	-3.054530
C	1.556633	2.704929	-1.862551
F	2.220797	3.864903	-1.819088
C	1.430252	2.477345	-4.456084
O	1.052242	1.806648	-5.406510
O	2.099050	3.650663	-4.569225
C	2.351116	4.076808	-5.916207
H	2.895579	5.033821	-5.833064
H	1.401015	4.217390	-6.470168
H	2.962391	3.327969	-6.459293
H	1.699302	2.946693	1.306486
H	-0.457736	-9.143623	0.791346
H	-0.158056	-9.149441	-0.979708
H	-0.180205	-1.443175	1.064830
$end

$rem
JOBTYPE		SP
EXCHANGE	HF
CORRELATION	pRIMP2
BASIS		cc-pvtz
METHOD		rimp2
AUX_BASIS	rimp2-cc-pvtz
SOLVENT_METHOD	PCM
PURECART	11111
SYMMETRY	false
MEM_TOTAL	110000
SCF_CONVERGENCE = 6
THRESH=10
GUI = 2
$end

$solvent
dielectric 4.90
$end
--------------------------------------------------------------

             Standard Nuclear Orientation (Angstroms)
    I     Atom           X                Y                Z
 ----------------------------------------------------------------
    1      C      -0.3062350000    -8.5177020000    -0.0959660000
    2      C       0.7544150000    -7.6415750000     0.0828070000
    3      S      -1.8337020000    -7.6386340000    -0.3486350000
    4      C       0.3836750000    -6.2647850000     0.0174010000
    5      H       1.7877570000    -7.9660810000     0.2590080000
    6      C      -1.0208850000    -6.0727140000    -0.2319130000
    7      C      -1.5790970000    -4.7870490000    -0.3050440000
    8      C       1.2680820000    -5.1628010000     0.1965490000
    9      C       0.7087960000    -3.8748170000     0.1276060000
   10      C      -0.6967690000    -3.6839520000    -0.1247920000
   11      O       2.5723780000    -5.4997720000     0.3978670000
   12      O      -2.8895320000    -4.4590550000    -0.5061030000
   13      C      -3.7184200000    -5.3290630000    -1.2673350000
   14      H      -4.6352040000    -4.7556940000    -1.5028040000
   15      H      -4.0107900000    -6.2380950000    -0.6974710000
   16      H      -3.2265060000    -5.6372620000    -2.2151940000
   17      C       3.4674150000    -4.5722610000     0.9992380000
   18      H       4.3886480000    -5.1397430000     1.2306490000
   19      H       3.0523230000    -4.1531310000     1.9409050000
   20      H       3.7308190000    -3.7395310000     0.3115430000
   21      C      -1.0643660000    -2.3066540000    -0.1873230000
   22      S       1.5211540000    -2.3065010000     0.2571280000
   23      C       0.0000000000    -1.4351850000     0.0000000000
   24      H      -2.0959390000    -1.9781380000    -0.3659030000
   25      C       0.0000000000     0.0000000000     0.0000000000
   26      S       0.4527920000     0.7833120000     1.5075410000
   27      C       1.2383970000     2.1455560000     0.7188730000
   28      C       0.4528750000     0.7828980000    -1.0678720000
   29      C       1.1459450000     1.9879560000    -0.6864100000
   30      S       0.3335560000     0.5705310000    -2.8055160000
   31      C       1.2046040000     2.0902900000    -3.0545300000
   32      C       1.5566330000     2.7049290000    -1.8625510000
   33      F       2.2207970000     3.8649030000    -1.8190880000
   34      C       1.4302520000     2.4773450000    -4.4560840000
   35      O       1.0522420000     1.8066480000    -5.4065100000
   36      O       2.0990500000     3.6506630000    -4.5692250000
   37      C       2.3511160000     4.0768080000    -5.9162070000
   38      H       2.8955790000     5.0338210000    -5.8330640000
   39      H       1.4010150000     4.2173900000    -6.4701680000
   40      H       2.9623910000     3.3279690000    -6.4592930000
   41      H       1.6993020000     2.9466930000     1.3064860000
   42      H      -0.4577360000    -9.1436230000     0.7913460000
   43      H      -0.1580560000    -9.1494410000    -0.9797080000
   44      H      -0.1802050000    -1.4431750000     1.0648300000
 ----------------------------------------------------------------

   11   -2755.3296106259      7.30e-07  Convergence criterion met
 Total energy in the final basis set =    -2755.3296106259
        RIMP2         total energy =     -2760.4202509288 a.u.

                    Orbital Energies (a.u.)
 --------------------------------------------------------------

 Alpha MOs
 -- Occupied --
-92.0168 -92.0014 -91.9751 -91.9567 -26.3444 -20.6152 -20.5865 -20.5856
-20.5616 -11.4099 -11.3839 -11.3184 -11.3081 -11.3050 -11.3039 -11.2982
-11.2906 -11.2891 -11.2859 -11.2838 -11.2821 -11.2817 -11.2768 -11.2707
-11.2707 -11.2569 -11.2542 -11.2483 -11.2339  -9.0157  -9.0013  -8.9774
 -8.9593  -6.6964  -6.6957  -6.6953  -6.6823  -6.6816  -6.6805  -6.6585
 -6.6576  -6.6563  -6.6406  -6.6396  -6.6386  -1.6615  -1.4677  -1.4092
 -1.4080  -1.3704  -1.2309  -1.2015  -1.1722  -1.1387  -1.0983  -1.0460
 -1.0439  -1.0256  -1.0027  -0.9953  -0.9637  -0.9587  -0.9475  -0.9402
 -0.8922  -0.8697  -0.8642  -0.8152  -0.7977  -0.7883  -0.7836  -0.7666
 -0.7570  -0.7375  -0.7263  -0.7173  -0.6966  -0.6867  -0.6848  -0.6789
 -0.6743  -0.6603  -0.6553  -0.6478  -0.6331  -0.6298  -0.6187  -0.6143
 -0.6113  -0.6000  -0.5912  -0.5744  -0.5723  -0.5630  -0.5580  -0.5538
 -0.5436  -0.5330  -0.5313  -0.5249  -0.5122  -0.5081  -0.5065  -0.5002
 -0.4851  -0.4826  -0.4755  -0.4744  -0.4708  -0.4684  -0.4598  -0.4452
 -0.4217  -0.3991  -0.3844  -0.3688  -0.3502  -0.3042  -0.2880  -0.2191

          Ground-State Mulliken Net Atomic Charges

     Atom                 Charge (a.u.)
  ----------------------------------------
      1 C                    -0.069789
      2 C                    -0.268076
      3 S                    -0.138787
      4 C                    -0.041661
      5 H                     0.192286
      6 C                    -0.054300
      7 C                     0.223352
      8 C                     0.221294
      9 C                    -0.074003
     10 C                    -0.048106
     11 O                    -0.335373
     12 O                    -0.343331
     13 C                    -0.082516
     14 H                     0.119781
     15 H                     0.091770
     16 H                     0.093060
     17 C                    -0.086551
     18 H                     0.122897
     19 H                     0.091174
     20 H                     0.090331
     21 C                    -0.257697
     22 S                    -0.072145
     23 C                     0.023619
     24 H                     0.206055
     25 C                    -0.070601
     26 S                     0.094664
     27 C                    -0.172399
     28 C                     0.008282
     29 C                    -0.091159
     30 S                     0.021396
     31 C                    -0.155578
     32 C                     0.396494
     33 F                    -0.206001
     34 C                     0.445359
     35 O                    -0.460870
     36 O                    -0.301021
     37 C                    -0.058368
     38 H                     0.121413
     39 H                     0.095146
     40 H                     0.095307
     41 H                     0.219722
     42 H                     0.116040
     43 H                     0.113946
     44 H                     0.184945
  ----------------------------------------
  Sum of atomic charges =     0.000000

                    Cartesian Multipole Moments
 -----------------------------------------------------------------
    Charge (ESU x 10^10)
                 0.0000
    Dipole Moment (Debye)
         X       1.6162      Y       3.6109      Z       3.3771
       Tot       5.2015
    Quadrupole Moments (Debye-Ang)
        XX    -183.8185     XY       3.7811     YY    -183.1259
        XZ       4.1526     YZ      -6.9197     ZZ    -201.2424

 Total job time:  353.73s(wall), 10881.40s(cpu)
        *  Thank you very much for using Q-Chem.  Have a nice day.  *
