 Q-Chem 5.4, Q-Chem, Inc., Pleasanton, CA (2021)
 Q-Chem 5.4.0 for Intel X86 EM64T Linux

User input:
--------------------------------------------------------------
$molecule
0 1
C	0.236226	-8.517702	-0.217225
C	-0.448921	-7.641575	0.611939
S	1.218777	-7.638634	-1.413715
C	-0.206907	-6.264785	0.323572
H	-1.118185	-7.966081	1.418739
C	0.711285	-6.072714	-0.768156
C	1.053725	-4.787049	-1.215016
C	-0.804258	-5.162801	0.999917
C	-0.464908	-3.874817	0.550033
C	0.456457	-3.683952	-0.541024
O	-1.630752	-5.499772	2.028811
O	1.883064	-4.459055	-2.249357
C	2.956754	-5.329063	-2.586579
H	3.619069	-4.755694	-3.262802
H	2.609423	-6.238095	-3.124711
H	3.531667	-5.637262	-1.686639
C	-2.599073	-4.572261	2.503251
H	-3.260097	-5.139743	3.185356
H	-3.207034	-4.153131	1.672937
H	-2.135214	-3.739531	3.075213
C	0.694410	-2.306654	-0.828107
S	-0.983256	-2.306501	1.188794
C	0.000000	-1.435185	0.000000
H	1.364851	-1.978138	-1.632185
C	0.000000	0.000000	0.000000
S	0.693394	0.581209	1.507541
C	1.897536	1.592607	0.718873
C	0.693330	0.580791	-1.067872
C	1.756758	1.476132	-0.686410
S	0.508573	0.422041	-2.805516
C	1.846879	1.552232	-3.054530
C	2.387897	2.009402	-1.862551
F	3.408741	2.872264	-1.819088
C	2.191300	1.838768	-4.456084
O	1.606694	1.337806	-5.406510
O	3.221062	2.712584	-4.569225
C	3.603677	3.026817	-5.916207
H	4.442623	3.739898	-5.833064
H	2.758956	3.483875	-6.470168
H	3.921969	2.114070	-6.459293
H	2.604650	2.187790	1.306486
H	-0.456457	-9.143623	-0.792084
H	0.927480	-9.149441	0.352973
H	-0.832067	-1.443175	-0.688477
$end

$rem
JOBTYPE		SP
EXCHANGE	HF
CORRELATION	pRIMP2
BASIS		cc-pvtz
METHOD		rimp2
AUX_BASIS	rimp2-cc-pvtz
SOLVENT_METHOD	PCM
PURECART	11111
SYMMETRY	false
MEM_TOTAL	110000
SCF_CONVERGENCE = 6
THRESH=10
GUI = 2
$end

$solvent
dielectric 4.90
$end
--------------------------------------------------------------

             Standard Nuclear Orientation (Angstroms)
    I     Atom           X                Y                Z
 ----------------------------------------------------------------
    1      C       0.2362260000    -8.5177020000    -0.2172250000
    2      C      -0.4489210000    -7.6415750000     0.6119390000
    3      S       1.2187770000    -7.6386340000    -1.4137150000
    4      C      -0.2069070000    -6.2647850000     0.3235720000
    5      H      -1.1181850000    -7.9660810000     1.4187390000
    6      C       0.7112850000    -6.0727140000    -0.7681560000
    7      C       1.0537250000    -4.7870490000    -1.2150160000
    8      C      -0.8042580000    -5.1628010000     0.9999170000
    9      C      -0.4649080000    -3.8748170000     0.5500330000
   10      C       0.4564570000    -3.6839520000    -0.5410240000
   11      O      -1.6307520000    -5.4997720000     2.0288110000
   12      O       1.8830640000    -4.4590550000    -2.2493570000
   13      C       2.9567540000    -5.3290630000    -2.5865790000
   14      H       3.6190690000    -4.7556940000    -3.2628020000
   15      H       2.6094230000    -6.2380950000    -3.1247110000
   16      H       3.5316670000    -5.6372620000    -1.6866390000
   17      C      -2.5990730000    -4.5722610000     2.5032510000
   18      H      -3.2600970000    -5.1397430000     3.1853560000
   19      H      -3.2070340000    -4.1531310000     1.6729370000
   20      H      -2.1352140000    -3.7395310000     3.0752130000
   21      C       0.6944100000    -2.3066540000    -0.8281070000
   22      S      -0.9832560000    -2.3065010000     1.1887940000
   23      C       0.0000000000    -1.4351850000     0.0000000000
   24      H       1.3648510000    -1.9781380000    -1.6321850000
   25      C       0.0000000000     0.0000000000     0.0000000000
   26      S       0.6933940000     0.5812090000     1.5075410000
   27      C       1.8975360000     1.5926070000     0.7188730000
   28      C       0.6933300000     0.5807910000    -1.0678720000
   29      C       1.7567580000     1.4761320000    -0.6864100000
   30      S       0.5085730000     0.4220410000    -2.8055160000
   31      C       1.8468790000     1.5522320000    -3.0545300000
   32      C       2.3878970000     2.0094020000    -1.8625510000
   33      F       3.4087410000     2.8722640000    -1.8190880000
   34      C       2.1913000000     1.8387680000    -4.4560840000
   35      O       1.6066940000     1.3378060000    -5.4065100000
   36      O       3.2210620000     2.7125840000    -4.5692250000
   37      C       3.6036770000     3.0268170000    -5.9162070000
   38      H       4.4426230000     3.7398980000    -5.8330640000
   39      H       2.7589560000     3.4838750000    -6.4701680000
   40      H       3.9219690000     2.1140700000    -6.4592930000
   41      H       2.6046500000     2.1877900000     1.3064860000
   42      H      -0.4564570000    -9.1436230000    -0.7920840000
   43      H       0.9274800000    -9.1494410000     0.3529730000
   44      H      -0.8320670000    -1.4431750000    -0.6884770000
 ----------------------------------------------------------------

   11   -2755.2960137122      7.32e-07  Convergence criterion met
 Total energy in the final basis set =    -2755.2960137122
        RIMP2         total energy =     -2760.3974373937 a.u.

                    Orbital Energies (a.u.)
 --------------------------------------------------------------

 Alpha MOs
 -- Occupied --
-92.0094 -92.0076 -91.9759 -91.9560 -26.3466 -20.6163 -20.5863 -20.5851
-20.5629 -11.4114 -11.3871 -11.3258 -11.3147 -11.3081 -11.3041 -11.3001
-11.2899 -11.2889 -11.2835 -11.2821 -11.2820 -11.2818 -11.2754 -11.2714
-11.2695 -11.2563 -11.2532 -11.2474 -11.2318  -9.0091  -9.0075  -8.9781
 -8.9586  -6.6898  -6.6888  -6.6886  -6.6885  -6.6877  -6.6867  -6.6592
 -6.6584  -6.6571  -6.6398  -6.6389  -6.6379  -1.6636  -1.4689  -1.4088
 -1.4077  -1.3716  -1.2374  -1.2009  -1.1716  -1.1402  -1.0993  -1.0495
 -1.0442  -1.0265  -1.0015  -0.9956  -0.9646  -0.9593  -0.9478  -0.9416
 -0.8922  -0.8725  -0.8611  -0.8131  -0.7998  -0.7910  -0.7820  -0.7654
 -0.7594  -0.7356  -0.7283  -0.7123  -0.6997  -0.6935  -0.6863  -0.6805
 -0.6754  -0.6647  -0.6551  -0.6476  -0.6377  -0.6303  -0.6179  -0.6145
 -0.6116  -0.6018  -0.5924  -0.5779  -0.5723  -0.5663  -0.5570  -0.5560
 -0.5395  -0.5324  -0.5272  -0.5248  -0.5122  -0.5100  -0.5064  -0.5001
 -0.4865  -0.4814  -0.4772  -0.4747  -0.4689  -0.4644  -0.4571  -0.4444
 -0.4253  -0.3960  -0.3815  -0.3676  -0.3524  -0.3067  -0.2872  -0.2150

          Ground-State Mulliken Net Atomic Charges

     Atom                 Charge (a.u.)
  ----------------------------------------
      1 C                    -0.069167
      2 C                    -0.274966
      3 S                    -0.141104
      4 C                    -0.042406
      5 H                     0.191478
      6 C                    -0.054650
      7 C                     0.226891
      8 C                     0.225593
      9 C                    -0.069506
     10 C                    -0.052699
     11 O                    -0.335570
     12 O                    -0.343634
     13 C                    -0.082817
     14 H                     0.119794
     15 H                     0.092372
     16 H                     0.092445
     17 C                    -0.087033
     18 H                     0.123626
     19 H                     0.091956
     20 H                     0.089435
     21 C                    -0.287161
     22 S                    -0.102902
     23 C                     0.089213
     24 H                     0.211387
     25 C                    -0.147513
     26 S                     0.102860
     27 C                    -0.149912
     28 C                     0.003546
     29 C                    -0.094114
     30 S                     0.044032
     31 C                    -0.153742
     32 C                     0.401102
     33 F                    -0.204574
     34 C                     0.447298
     35 O                    -0.461442
     36 O                    -0.301106
     37 C                    -0.058178
     38 H                     0.121732
     39 H                     0.095442
     40 H                     0.095391
     41 H                     0.218143
     42 H                     0.115317
     43 H                     0.112976
     44 H                     0.202165
  ----------------------------------------
  Sum of atomic charges =     0.000000

                    Cartesian Multipole Moments
 -----------------------------------------------------------------
    Charge (ESU x 10^10)
                 0.0000
    Dipole Moment (Debye)
         X       2.4073      Y       3.4845      Z       2.1619
       Tot       4.7550
    Quadrupole Moments (Debye-Ang)
        XX    -178.1357     XY      11.0078     YY    -191.5085
        XZ     -13.8456     YZ      -7.5859     ZZ    -200.2093

 Total job time:  326.68s(wall), 10603.20s(cpu)
        *  Thank you very much for using Q-Chem.  Have a nice day.  *
