 Q-Chem 5.4, Q-Chem, Inc., Pleasanton, CA (2021)
 Q-Chem 5.4.0 for Intel X86 EM64T Linux

User input:
--------------------------------------------------------------
$molecule
0 1
C	0.070009	-8.517702	0.313191
C	-0.305494	-7.641575	-0.694746
S	0.614924	-7.638634	1.762350
C	-0.176768	-6.264785	-0.340973
H	-0.669571	-7.966081	-1.677747
C	0.309600	-6.072714	1.000069
C	0.525372	-4.787049	1.520060
C	-0.463825	-5.162801	-1.196466
C	-0.243888	-3.874817	-0.677639
C	0.240312	-3.683952	0.665815
O	-0.941626	-5.499772	-2.426678
O	1.006468	-4.459055	2.755460
C	0.761666	-5.329063	3.853913
H	1.016135	-4.755694	4.765607
H	1.401368	-6.238095	3.822182
H	-0.305161	-5.637262	3.901833
C	-0.868342	-4.572261	-3.502489
H	-1.128551	-5.139743	-4.416005
H	0.154712	-4.153131	-3.613841
H	-1.595605	-3.739531	-3.386756
C	0.369957	-2.306654	1.015430
S	-0.537898	-2.306501	-1.445922
C	-0.000000	-1.435185	-0.000000
H	0.731088	-1.978138	1.998088
C	0.000000	0.000000	0.000000
S	0.079327	0.901280	1.507541
C	0.215617	2.467903	0.718873
C	0.079577	0.900940	-1.067872
C	0.198433	2.285998	-0.686410
S	0.061187	0.658044	-2.805516
C	0.208347	2.403534	-3.054530
C	0.267636	3.109360	-1.862551
F	0.379347	4.441341	-1.819088
C	0.249278	2.849688	-4.456084
O	0.190132	2.082076	-5.406510
O	0.359548	4.195721	-4.569225
C	0.407901	4.688467	-5.916207
H	0.496901	5.785916	-5.833064
H	-0.512596	4.414348	-6.470168
H	1.278377	4.268124	-6.459293
H	0.294764	3.388767	1.306486
H	0.914194	-9.143623	0.000738
H	-0.769424	-9.149441	0.626735
H	1.012272	-1.443175	-0.376353
$end

$rem
JOBTYPE		SP
EXCHANGE	HF
CORRELATION	pRIMP2
BASIS		cc-pvtz
METHOD		rimp2
AUX_BASIS	rimp2-cc-pvtz
SOLVENT_METHOD	PCM
PURECART	11111
SYMMETRY	false
MEM_TOTAL	110000
SCF_CONVERGENCE = 6
THRESH=10
GUI = 2
$end

$solvent
dielectric 4.90
$end
--------------------------------------------------------------

             Standard Nuclear Orientation (Angstroms)
    I     Atom           X                Y                Z
 ----------------------------------------------------------------
    1      C       0.0700090000    -8.5177020000     0.3131910000
    2      C      -0.3054940000    -7.6415750000    -0.6947460000
    3      S       0.6149240000    -7.6386340000     1.7623500000
    4      C      -0.1767680000    -6.2647850000    -0.3409730000
    5      H      -0.6695710000    -7.9660810000    -1.6777470000
    6      C       0.3096000000    -6.0727140000     1.0000690000
    7      C       0.5253720000    -4.7870490000     1.5200600000
    8      C      -0.4638250000    -5.1628010000    -1.1964660000
    9      C      -0.2438880000    -3.8748170000    -0.6776390000
   10      C       0.2403120000    -3.6839520000     0.6658150000
   11      O      -0.9416260000    -5.4997720000    -2.4266780000
   12      O       1.0064680000    -4.4590550000     2.7554600000
   13      C       0.7616660000    -5.3290630000     3.8539130000
   14      H       1.0161350000    -4.7556940000     4.7656070000
   15      H       1.4013680000    -6.2380950000     3.8221820000
   16      H      -0.3051610000    -5.6372620000     3.9018330000
   17      C      -0.8683420000    -4.5722610000    -3.5024890000
   18      H      -1.1285510000    -5.1397430000    -4.4160050000
   19      H       0.1547120000    -4.1531310000    -3.6138410000
   20      H      -1.5956050000    -3.7395310000    -3.3867560000
   21      C       0.3699570000    -2.3066540000     1.0154300000
   22      S      -0.5378980000    -2.3065010000    -1.4459220000
   23      C       0.0000000000    -1.4351850000     0.0000000000
   24      H       0.7310880000    -1.9781380000     1.9980880000
   25      C       0.0000000000     0.0000000000     0.0000000000
   26      S       0.0793270000     0.9012800000     1.5075410000
   27      C       0.2156170000     2.4679030000     0.7188730000
   28      C       0.0795770000     0.9009400000    -1.0678720000
   29      C       0.1984330000     2.2859980000    -0.6864100000
   30      S       0.0611870000     0.6580440000    -2.8055160000
   31      C       0.2083470000     2.4035340000    -3.0545300000
   32      C       0.2676360000     3.1093600000    -1.8625510000
   33      F       0.3793470000     4.4413410000    -1.8190880000
   34      C       0.2492780000     2.8496880000    -4.4560840000
   35      O       0.1901320000     2.0820760000    -5.4065100000
   36      O       0.3595480000     4.1957210000    -4.5692250000
   37      C       0.4079010000     4.6884670000    -5.9162070000
   38      H       0.4969010000     5.7859160000    -5.8330640000
   39      H      -0.5125960000     4.4143480000    -6.4701680000
   40      H       1.2783770000     4.2681240000    -6.4592930000
   41      H       0.2947640000     3.3887670000     1.3064860000
   42      H       0.9141940000    -9.1436230000     0.0007380000
   43      H      -0.7694240000    -9.1494410000     0.6267350000
   44      H       1.0122720000    -1.4431750000    -0.3763530000
 ----------------------------------------------------------------

   11   -2755.3442680975      8.18e-07  Convergence criterion met
 Total energy in the final basis set =    -2755.3442680975
        RIMP2         total energy =     -2760.4353359515 a.u.

                    Orbital Energies (a.u.)
 --------------------------------------------------------------

 Alpha MOs
 -- Occupied --
-92.0144 -91.9953 -91.9806 -91.9600 -26.3422 -20.6147 -20.5886 -20.5883
-20.5612 -11.4091 -11.3807 -11.3116 -11.3107 -11.3102 -11.2995 -11.2972
-11.2918 -11.2887 -11.2852 -11.2848 -11.2845 -11.2844 -11.2837 -11.2754
-11.2735 -11.2616 -11.2598 -11.2514 -11.2406  -9.0129  -8.9955  -8.9830
 -8.9625  -6.6937  -6.6932  -6.6926  -6.6766  -6.6758  -6.6746  -6.6641
 -6.6632  -6.6619  -6.6438  -6.6428  -6.6418  -1.6593  -1.4671  -1.4119
 -1.4101  -1.3698  -1.2300  -1.2029  -1.1756  -1.1368  -1.1017  -1.0487
 -1.0442  -1.0235  -1.0051  -0.9984  -0.9637  -0.9570  -0.9497  -0.9420
 -0.8950  -0.8703  -0.8650  -0.8153  -0.7921  -0.7905  -0.7852  -0.7701
 -0.7571  -0.7372  -0.7243  -0.7094  -0.6967  -0.6962  -0.6845  -0.6817
 -0.6737  -0.6644  -0.6567  -0.6496  -0.6378  -0.6319  -0.6217  -0.6161
 -0.6113  -0.5995  -0.5935  -0.5764  -0.5714  -0.5662  -0.5602  -0.5566
 -0.5502  -0.5319  -0.5312  -0.5269  -0.5157  -0.5114  -0.5083  -0.5011
 -0.4852  -0.4806  -0.4763  -0.4740  -0.4713  -0.4656  -0.4608  -0.4478
 -0.4324  -0.3974  -0.3845  -0.3722  -0.3500  -0.2994  -0.2876  -0.2189

          Ground-State Mulliken Net Atomic Charges

     Atom                 Charge (a.u.)
  ----------------------------------------
      1 C                    -0.070708
      2 C                    -0.248897
      3 S                    -0.132078
      4 C                    -0.048123
      5 H                     0.194968
      6 C                    -0.050451
      7 C                     0.222520
      8 C                     0.231892
      9 C                    -0.072991
     10 C                    -0.042755
     11 O                    -0.334067
     12 O                    -0.344086
     13 C                    -0.082709
     14 H                     0.120161
     15 H                     0.092285
     16 H                     0.093095
     17 C                    -0.088773
     18 H                     0.124534
     19 H                     0.093949
     20 H                     0.091207
     21 C                    -0.296947
     22 S                    -0.099269
     23 C                     0.125453
     24 H                     0.198441
     25 C                    -0.015502
     26 S                     0.077505
     27 C                    -0.213073
     28 C                    -0.025407
     29 C                    -0.117983
     30 S                    -0.010358
     31 C                    -0.162493
     32 C                     0.404241
     33 F                    -0.207962
     34 C                     0.443768
     35 O                    -0.460629
     36 O                    -0.300475
     37 C                    -0.058856
     38 H                     0.121436
     39 H                     0.095190
     40 H                     0.094972
     41 H                     0.216447
     42 H                     0.118838
     43 H                     0.116530
     44 H                     0.207160
  ----------------------------------------
  Sum of atomic charges =     0.000000

                    Cartesian Multipole Moments
 -----------------------------------------------------------------
    Charge (ESU x 10^10)
                 0.0000
    Dipole Moment (Debye)
         X       0.7136      Y       1.3480      Z       2.5730
       Tot       2.9911
    Quadrupole Moments (Debye-Ang)
        XX    -201.8093     XY       2.7225     YY    -169.4040
        XZ      -0.1145     YZ      -3.5460     ZZ    -187.8121

 Total job time:  338.68s(wall), 10889.35s(cpu)
        *  Thank you very much for using Q-Chem.  Have a nice day.  *
