 Q-Chem 5.4, Q-Chem, Inc., Pleasanton, CA (2021)
 Q-Chem 5.4.0 for Intel X86 EM64T Linux

User input:
--------------------------------------------------------------
$molecule
0 1
C	0.095966	-8.517702	-0.306235
C	-0.082807	-7.641575	0.754415
S	0.348635	-7.638634	-1.833702
C	-0.017401	-6.264785	0.383675
H	-0.259008	-7.966081	1.787757
C	0.231913	-6.072714	-1.020885
C	0.305044	-4.787049	-1.579097
C	-0.196549	-5.162801	1.268082
C	-0.127606	-3.874817	0.708796
C	0.124792	-3.683952	-0.696769
O	-0.397867	-5.499772	2.572378
O	0.506103	-4.459055	-2.889532
C	1.267335	-5.329063	-3.718420
H	1.502804	-4.755694	-4.635204
H	0.697471	-6.238095	-4.010790
H	2.215194	-5.637262	-3.226506
C	-0.999238	-4.572261	3.467415
H	-1.230649	-5.139743	4.388648
H	-1.940905	-4.153131	3.052323
H	-0.311543	-3.739531	3.730819
C	0.187323	-2.306654	-1.064366
S	-0.257128	-2.306501	1.521154
C	-0.000000	-1.435185	-0.000000
H	0.365903	-1.978138	-2.095939
C	0.000000	0.000000	0.000000
S	0.079327	0.901280	1.507541
C	0.215617	2.467903	0.718873
C	0.079577	0.900940	-1.067872
C	0.198433	2.285998	-0.686410
S	0.061187	0.658044	-2.805516
C	0.208347	2.403534	-3.054530
C	0.267636	3.109360	-1.862551
F	0.379347	4.441341	-1.819088
C	0.249278	2.849688	-4.456084
O	0.190132	2.082076	-5.406510
O	0.359548	4.195721	-4.569225
C	0.407901	4.688467	-5.916207
H	0.496901	5.785916	-5.833064
H	-0.512596	4.414348	-6.470168
H	1.278377	4.268124	-6.459293
H	0.294764	3.388767	1.306486
H	-0.791346	-9.143623	-0.457736
H	0.979708	-9.149441	-0.158056
H	-1.064830	-1.443175	-0.180205
$end

$rem
JOBTYPE		SP
EXCHANGE	HF
CORRELATION	pRIMP2
BASIS		cc-pvtz
METHOD		rimp2
AUX_BASIS	rimp2-cc-pvtz
SOLVENT_METHOD	PCM
PURECART	11111
SYMMETRY	false
MEM_TOTAL	110000
SCF_CONVERGENCE = 6
THRESH=10
GUI = 2
$end

$solvent
dielectric 4.90
$end
--------------------------------------------------------------

             Standard Nuclear Orientation (Angstroms)
    I     Atom           X                Y                Z
 ----------------------------------------------------------------
    1      C       0.0959660000    -8.5177020000    -0.3062350000
    2      C      -0.0828070000    -7.6415750000     0.7544150000
    3      S       0.3486350000    -7.6386340000    -1.8337020000
    4      C      -0.0174010000    -6.2647850000     0.3836750000
    5      H      -0.2590080000    -7.9660810000     1.7877570000
    6      C       0.2319130000    -6.0727140000    -1.0208850000
    7      C       0.3050440000    -4.7870490000    -1.5790970000
    8      C      -0.1965490000    -5.1628010000     1.2680820000
    9      C      -0.1276060000    -3.8748170000     0.7087960000
   10      C       0.1247920000    -3.6839520000    -0.6967690000
   11      O      -0.3978670000    -5.4997720000     2.5723780000
   12      O       0.5061030000    -4.4590550000    -2.8895320000
   13      C       1.2673350000    -5.3290630000    -3.7184200000
   14      H       1.5028040000    -4.7556940000    -4.6352040000
   15      H       0.6974710000    -6.2380950000    -4.0107900000
   16      H       2.2151940000    -5.6372620000    -3.2265060000
   17      C      -0.9992380000    -4.5722610000     3.4674150000
   18      H      -1.2306490000    -5.1397430000     4.3886480000
   19      H      -1.9409050000    -4.1531310000     3.0523230000
   20      H      -0.3115430000    -3.7395310000     3.7308190000
   21      C       0.1873230000    -2.3066540000    -1.0643660000
   22      S      -0.2571280000    -2.3065010000     1.5211540000
   23      C       0.0000000000    -1.4351850000     0.0000000000
   24      H       0.3659030000    -1.9781380000    -2.0959390000
   25      C       0.0000000000     0.0000000000     0.0000000000
   26      S       0.0793270000     0.9012800000     1.5075410000
   27      C       0.2156170000     2.4679030000     0.7188730000
   28      C       0.0795770000     0.9009400000    -1.0678720000
   29      C       0.1984330000     2.2859980000    -0.6864100000
   30      S       0.0611870000     0.6580440000    -2.8055160000
   31      C       0.2083470000     2.4035340000    -3.0545300000
   32      C       0.2676360000     3.1093600000    -1.8625510000
   33      F       0.3793470000     4.4413410000    -1.8190880000
   34      C       0.2492780000     2.8496880000    -4.4560840000
   35      O       0.1901320000     2.0820760000    -5.4065100000
   36      O       0.3595480000     4.1957210000    -4.5692250000
   37      C       0.4079010000     4.6884670000    -5.9162070000
   38      H       0.4969010000     5.7859160000    -5.8330640000
   39      H      -0.5125960000     4.4143480000    -6.4701680000
   40      H       1.2783770000     4.2681240000    -6.4592930000
   41      H       0.2947640000     3.3887670000     1.3064860000
   42      H      -0.7913460000    -9.1436230000    -0.4577360000
   43      H       0.9797080000    -9.1494410000    -0.1580560000
   44      H      -1.0648300000    -1.4431750000    -0.1802050000
 ----------------------------------------------------------------

   11   -2755.3423349498      8.67e-07  Convergence criterion met
 Total energy in the final basis set =    -2755.3423349498
        RIMP2         total energy =     -2760.4331137144 a.u.

                    Orbital Energies (a.u.)
 --------------------------------------------------------------

 Alpha MOs
 -- Occupied --
-92.0150 -91.9962 -91.9831 -91.9597 -26.3426 -20.6149 -20.5897 -20.5876
-20.5615 -11.4095 -11.3814 -11.3123 -11.3118 -11.3102 -11.2990 -11.2982
-11.2911 -11.2889 -11.2863 -11.2861 -11.2852 -11.2845 -11.2827 -11.2749
-11.2740 -11.2615 -11.2600 -11.2513 -11.2409  -9.0137  -8.9965  -8.9853
 -8.9622  -6.6945  -6.6939  -6.6933  -6.6775  -6.6768  -6.6756  -6.6665
 -6.6656  -6.6643  -6.6435  -6.6425  -6.6415  -1.6597  -1.4674  -1.4129
 -1.4095  -1.3701  -1.2301  -1.2035  -1.1758  -1.1373  -1.1019  -1.0487
 -1.0451  -1.0233  -1.0049  -0.9998  -0.9631  -0.9595  -0.9500  -0.9408
 -0.8961  -0.8710  -0.8649  -0.8087  -0.8023  -0.7903  -0.7848  -0.7693
 -0.7568  -0.7383  -0.7246  -0.7110  -0.6997  -0.6933  -0.6847  -0.6816
 -0.6739  -0.6642  -0.6576  -0.6496  -0.6396  -0.6319  -0.6216  -0.6160
 -0.6123  -0.5982  -0.5938  -0.5770  -0.5720  -0.5655  -0.5606  -0.5529
 -0.5489  -0.5362  -0.5315  -0.5291  -0.5144  -0.5099  -0.5089  -0.5021
 -0.4854  -0.4825  -0.4769  -0.4736  -0.4704  -0.4664  -0.4622  -0.4486
 -0.4342  -0.3946  -0.3878  -0.3723  -0.3502  -0.2983  -0.2893  -0.2187

          Ground-State Mulliken Net Atomic Charges

     Atom                 Charge (a.u.)
  ----------------------------------------
      1 C                    -0.070766
      2 C                    -0.249883
      3 S                    -0.132058
      4 C                    -0.051022
      5 H                     0.194720
      6 C                    -0.049236
      7 C                     0.224900
      8 C                     0.236179
      9 C                    -0.076499
     10 C                    -0.029638
     11 O                    -0.333573
     12 O                    -0.343764
     13 C                    -0.083537
     14 H                     0.121427
     15 H                     0.092741
     16 H                     0.092935
     17 C                    -0.088924
     18 H                     0.125247
     19 H                     0.093477
     20 H                     0.090457
     21 C                    -0.335602
     22 S                    -0.096500
     23 C                     0.150837
     24 H                     0.196382
     25 C                    -0.059961
     26 S                     0.074237
     27 C                    -0.220417
     28 C                     0.032750
     29 C                    -0.125099
     30 S                    -0.013906
     31 C                    -0.164183
     32 C                     0.409319
     33 F                    -0.207823
     34 C                     0.442919
     35 O                    -0.460857
     36 O                    -0.300408
     37 C                    -0.058829
     38 H                     0.121572
     39 H                     0.095208
     40 H                     0.095160
     41 H                     0.217437
     42 H                     0.118855
     43 H                     0.116556
     44 H                     0.209172
  ----------------------------------------
  Sum of atomic charges =     0.000000

                    Cartesian Multipole Moments
 -----------------------------------------------------------------
    Charge (ESU x 10^10)
                 0.0000
    Dipole Moment (Debye)
         X      -0.5187      Y       1.3224      Z       3.2444
       Tot       3.5418
    Quadrupole Moments (Debye-Ang)
        XX    -197.4606     XY       2.1187     YY    -168.9152
        XZ      -8.6173     YZ     -12.0404     ZZ    -192.1678

 Total job time:  322.41s(wall), 10488.13s(cpu)
        *  Thank you very much for using Q-Chem.  Have a nice day.  *
