 Q-Chem 5.4, Q-Chem, Inc., Pleasanton, CA (2021)
 Q-Chem 5.4.0 for Intel X86 EM64T Linux

User input:
--------------------------------------------------------------
$molecule
0 1
C	0.041330	-8.517702	-0.318247
C	0.049453	-7.641575	0.757333
S	0.024919	-7.638634	-1.866383
C	0.049488	-6.264785	0.380867
H	0.055368	-7.966081	1.805573
C	0.051115	-6.072714	-1.045647
C	0.026203	-4.787049	-1.608077
C	0.026637	-5.162801	1.282948
C	-0.002586	-3.874817	0.720187
C	0.001903	-3.683952	-0.707853
O	0.054867	-5.499772	2.602386
O	-0.003348	-4.459055	-2.933517
C	0.602384	-5.329063	-3.881999
H	0.675079	-4.755694	-4.825744
H	-0.009592	-6.238095	-4.070972
H	1.621263	-5.637262	-3.562152
C	-0.381947	-4.572261	3.588253
H	-0.449872	-5.139743	4.535674
H	-1.381388	-4.153131	3.342986
H	0.341040	-3.739531	3.728239
C	-0.000348	-2.306654	-1.080725
S	0.010924	-2.306501	1.542694
C	0.000000	-1.435185	0.000000
H	-0.003612	-1.978138	-2.127635
C	0.000000	0.000000	0.000000
S	0.234628	0.873813	1.507541
C	0.640889	2.392969	0.718873
C	0.234815	0.873434	-1.067872
C	0.592377	2.216811	-0.686410
S	0.174526	0.637422	-2.805516
C	0.622551	2.330840	-3.054530
C	0.803505	3.015647	-1.862551
F	1.144815	4.307994	-1.819088
C	0.740334	2.763108	-4.456084
O	0.548793	2.017428	-5.406510
O	1.082665	4.069544	-4.569225
C	1.215848	4.546407	-5.916207
H	1.494066	5.611729	-5.833064
H	0.261736	4.436296	-6.470168
H	2.000108	3.981294	-6.459293
H	0.878739	3.286099	1.306486
H	-0.858809	-9.143623	-0.313367
H	0.937378	-9.149441	-0.325780
H	-1.079945	-1.443175	0.007439
$end

$rem
JOBTYPE		SP
EXCHANGE	HF
CORRELATION	pRIMP2
BASIS		cc-pvtz
METHOD		rimp2
AUX_BASIS	rimp2-cc-pvtz
SOLVENT_METHOD	PCM
PURECART	11111
SYMMETRY	false
MEM_TOTAL	110000
SCF_CONVERGENCE = 6
THRESH=10
GUI = 2
$end

$solvent
dielectric 4.90
$end
--------------------------------------------------------------

             Standard Nuclear Orientation (Angstroms)
    I     Atom           X                Y                Z
 ----------------------------------------------------------------
    1      C       0.0413300000    -8.5177020000    -0.3182470000
    2      C       0.0494530000    -7.6415750000     0.7573330000
    3      S       0.0249190000    -7.6386340000    -1.8663830000
    4      C       0.0494880000    -6.2647850000     0.3808670000
    5      H       0.0553680000    -7.9660810000     1.8055730000
    6      C       0.0511150000    -6.0727140000    -1.0456470000
    7      C       0.0262030000    -4.7870490000    -1.6080770000
    8      C       0.0266370000    -5.1628010000     1.2829480000
    9      C      -0.0025860000    -3.8748170000     0.7201870000
   10      C       0.0019030000    -3.6839520000    -0.7078530000
   11      O       0.0548670000    -5.4997720000     2.6023860000
   12      O      -0.0033480000    -4.4590550000    -2.9335170000
   13      C       0.6023840000    -5.3290630000    -3.8819990000
   14      H       0.6750790000    -4.7556940000    -4.8257440000
   15      H      -0.0095920000    -6.2380950000    -4.0709720000
   16      H       1.6212630000    -5.6372620000    -3.5621520000
   17      C      -0.3819470000    -4.5722610000     3.5882530000
   18      H      -0.4498720000    -5.1397430000     4.5356740000
   19      H      -1.3813880000    -4.1531310000     3.3429860000
   20      H       0.3410400000    -3.7395310000     3.7282390000
   21      C      -0.0003480000    -2.3066540000    -1.0807250000
   22      S       0.0109240000    -2.3065010000     1.5426940000
   23      C       0.0000000000    -1.4351850000     0.0000000000
   24      H      -0.0036120000    -1.9781380000    -2.1276350000
   25      C       0.0000000000     0.0000000000     0.0000000000
   26      S       0.2346280000     0.8738130000     1.5075410000
   27      C       0.6408890000     2.3929690000     0.7188730000
   28      C       0.2348150000     0.8734340000    -1.0678720000
   29      C       0.5923770000     2.2168110000    -0.6864100000
   30      S       0.1745260000     0.6374220000    -2.8055160000
   31      C       0.6225510000     2.3308400000    -3.0545300000
   32      C       0.8035050000     3.0156470000    -1.8625510000
   33      F       1.1448150000     4.3079940000    -1.8190880000
   34      C       0.7403340000     2.7631080000    -4.4560840000
   35      O       0.5487930000     2.0174280000    -5.4065100000
   36      O       1.0826650000     4.0695440000    -4.5692250000
   37      C       1.2158480000     4.5464070000    -5.9162070000
   38      H       1.4940660000     5.6117290000    -5.8330640000
   39      H       0.2617360000     4.4362960000    -6.4701680000
   40      H       2.0001080000     3.9812940000    -6.4592930000
   41      H       0.8787390000     3.2860990000     1.3064860000
   42      H      -0.8588090000    -9.1436230000    -0.3133670000
   43      H       0.9373780000    -9.1494410000    -0.3257800000
   44      H      -1.0799450000    -1.4431750000     0.0074390000
 ----------------------------------------------------------------

   11   -2755.3362966799      8.83e-07  Convergence criterion met
 Total energy in the final basis set =    -2755.3362966799
        RIMP2         total energy =     -2760.4286242807 a.u.

                    Orbital Energies (a.u.)
 --------------------------------------------------------------

 Alpha MOs
 -- Occupied --
-92.0148 -91.9967 -91.9830 -91.9592 -26.3428 -20.6150 -20.5893 -20.5874
-20.5615 -11.4095 -11.3816 -11.3111 -11.3100 -11.3097 -11.3012 -11.2982
-11.2926 -11.2889 -11.2861 -11.2858 -11.2846 -11.2837 -11.2826 -11.2745
-11.2742 -11.2606 -11.2596 -11.2509 -11.2397  -9.0135  -8.9970  -8.9852
 -8.9618  -6.6944  -6.6938  -6.6932  -6.6780  -6.6773  -6.6761  -6.6663
 -6.6654  -6.6642  -6.6430  -6.6421  -6.6410  -1.6599  -1.4674  -1.4125
 -1.4093  -1.3701  -1.2303  -1.2034  -1.1753  -1.1375  -1.1015  -1.0483
 -1.0451  -1.0236  -1.0047  -0.9994  -0.9632  -0.9594  -0.9497  -0.9408
 -0.8958  -0.8706  -0.8651  -0.8092  -0.8021  -0.7903  -0.7844  -0.7688
 -0.7568  -0.7382  -0.7248  -0.7122  -0.6994  -0.6918  -0.6848  -0.6813
 -0.6740  -0.6634  -0.6575  -0.6494  -0.6396  -0.6318  -0.6212  -0.6156
 -0.6121  -0.5984  -0.5937  -0.5771  -0.5715  -0.5654  -0.5602  -0.5540
 -0.5473  -0.5359  -0.5312  -0.5295  -0.5144  -0.5098  -0.5087  -0.5015
 -0.4853  -0.4821  -0.4773  -0.4737  -0.4708  -0.4665  -0.4608  -0.4479
 -0.4341  -0.3943  -0.3875  -0.3719  -0.3503  -0.2986  -0.2891  -0.2177

          Ground-State Mulliken Net Atomic Charges

     Atom                 Charge (a.u.)
  ----------------------------------------
      1 C                    -0.070454
      2 C                    -0.253398
      3 S                    -0.133351
      4 C                    -0.049771
      5 H                     0.194381
      6 C                    -0.050158
      7 C                     0.227277
      8 C                     0.232840
      9 C                    -0.073855
     10 C                    -0.040591
     11 O                    -0.333382
     12 O                    -0.344407
     13 C                    -0.083513
     14 H                     0.121533
     15 H                     0.092650
     16 H                     0.092970
     17 C                    -0.089125
     18 H                     0.125170
     19 H                     0.093250
     20 H                     0.090220
     21 C                    -0.301501
     22 S                    -0.097374
     23 C                     0.128016
     24 H                     0.196888
     25 C                    -0.041963
     26 S                     0.077163
     27 C                    -0.219781
     28 C                     0.003395
     29 C                    -0.114221
     30 S                    -0.011022
     31 C                    -0.165582
     32 C                     0.411501
     33 F                    -0.207266
     34 C                     0.443827
     35 O                    -0.460888
     36 O                    -0.300657
     37 C                    -0.058605
     38 H                     0.121539
     39 H                     0.095116
     40 H                     0.095179
     41 H                     0.217754
     42 H                     0.118289
     43 H                     0.116032
     44 H                     0.205875
  ----------------------------------------
  Sum of atomic charges =     0.000000

                    Cartesian Multipole Moments
 -----------------------------------------------------------------
    Charge (ESU x 10^10)
                 0.0000
    Dipole Moment (Debye)
         X      -0.0608      Y       1.5896      Z       3.3196
       Tot       3.6811
    Quadrupole Moments (Debye-Ang)
        XX    -198.9569     XY       3.8656     YY    -171.4870
        XZ      -7.7026     YZ     -11.7916     ZZ    -189.6818

 Total job time:  353.07s(wall), 10893.39s(cpu)
        *  Thank you very much for using Q-Chem.  Have a nice day.  *
