 Q-Chem 5.4, Q-Chem, Inc., Pleasanton, CA (2021)
 Q-Chem 5.4.0 for Intel X86 EM64T Linux

User input:
--------------------------------------------------------------
$molecule
0 1
C	-0.320589	-8.517702	0.014560
C	0.737240	-7.641575	-0.180211
S	-1.842356	-7.638634	0.299553
C	0.366488	-6.264785	-0.114873
H	1.768528	-7.966081	-0.368061
C	-1.038637	-6.072714	0.131236
C	-1.588197	-4.787049	0.253435
C	1.258831	-5.162801	-0.249014
C	0.709695	-3.874817	-0.122513
C	-0.697430	-3.683952	0.121043
O	2.553323	-5.499772	-0.505933
O	-2.888369	-4.459055	0.512697
C	-3.927625	-5.329063	0.080869
H	-4.869656	-4.755694	0.173159
H	-4.007459	-6.238095	0.716363
H	-3.789565	-5.637262	-0.978072
C	3.600064	-4.572261	-0.246949
H	4.544887	-5.139743	-0.344574
H	3.532074	-4.153131	0.779898
H	3.612378	-3.739531	-0.983261
C	-1.064246	-2.306654	0.188009
S	1.517360	-2.306501	-0.278644
C	-0.000000	-1.435185	-0.000000
H	-2.094685	-1.978138	0.373017
C	0.000000	0.000000	0.000000
S	0.581934	0.692785	1.507541
C	1.592155	1.897915	0.718873
C	0.581944	0.692363	-1.067872
C	1.473741	1.758764	-0.686410
S	0.427560	0.503942	-2.805516
C	1.549278	1.849357	-3.054530
C	2.002690	2.393529	-1.862551
F	2.858191	3.420549	-1.819088
C	1.838710	2.191348	-4.456084
O	1.349977	1.596481	-5.406510
O	2.701091	3.230705	-4.569225
C	3.023327	3.606605	-5.916207
H	3.725703	4.454534	-5.833064
H	2.112072	3.910035	-6.470168
H	3.495281	2.762996	-6.459293
H	2.185174	2.606846	1.306486
H	-0.159475	-9.143623	0.900177
H	-0.483604	-9.149441	-0.866566
H	0.194856	-1.443175	1.062246
$end

$rem
JOBTYPE		SP
EXCHANGE	HF
CORRELATION	pRIMP2
BASIS		cc-pvtz
METHOD		rimp2
AUX_BASIS	rimp2-cc-pvtz
SOLVENT_METHOD	PCM
PURECART	11111
SYMMETRY	false
MEM_TOTAL	110000
SCF_CONVERGENCE = 6
THRESH=10
GUI = 2
$end

$solvent
dielectric 4.90
$end
--------------------------------------------------------------

             Standard Nuclear Orientation (Angstroms)
    I     Atom           X                Y                Z
 ----------------------------------------------------------------
    1      C      -0.3205890000    -8.5177020000     0.0145600000
    2      C       0.7372400000    -7.6415750000    -0.1802110000
    3      S      -1.8423560000    -7.6386340000     0.2995530000
    4      C       0.3664880000    -6.2647850000    -0.1148730000
    5      H       1.7685280000    -7.9660810000    -0.3680610000
    6      C      -1.0386370000    -6.0727140000     0.1312360000
    7      C      -1.5881970000    -4.7870490000     0.2534350000
    8      C       1.2588310000    -5.1628010000    -0.2490140000
    9      C       0.7096950000    -3.8748170000    -0.1225130000
   10      C      -0.6974300000    -3.6839520000     0.1210430000
   11      O       2.5533230000    -5.4997720000    -0.5059330000
   12      O      -2.8883690000    -4.4590550000     0.5126970000
   13      C      -3.9276250000    -5.3290630000     0.0808690000
   14      H      -4.8696560000    -4.7556940000     0.1731590000
   15      H      -4.0074590000    -6.2380950000     0.7163630000
   16      H      -3.7895650000    -5.6372620000    -0.9780720000
   17      C       3.6000640000    -4.5722610000    -0.2469490000
   18      H       4.5448870000    -5.1397430000    -0.3445740000
   19      H       3.5320740000    -4.1531310000     0.7798980000
   20      H       3.6123780000    -3.7395310000    -0.9832610000
   21      C      -1.0642460000    -2.3066540000     0.1880090000
   22      S       1.5173600000    -2.3065010000    -0.2786440000
   23      C       0.0000000000    -1.4351850000     0.0000000000
   24      H      -2.0946850000    -1.9781380000     0.3730170000
   25      C       0.0000000000     0.0000000000     0.0000000000
   26      S       0.5819340000     0.6927850000     1.5075410000
   27      C       1.5921550000     1.8979150000     0.7188730000
   28      C       0.5819440000     0.6923630000    -1.0678720000
   29      C       1.4737410000     1.7587640000    -0.6864100000
   30      S       0.4275600000     0.5039420000    -2.8055160000
   31      C       1.5492780000     1.8493570000    -3.0545300000
   32      C       2.0026900000     2.3935290000    -1.8625510000
   33      F       2.8581910000     3.4205490000    -1.8190880000
   34      C       1.8387100000     2.1913480000    -4.4560840000
   35      O       1.3499770000     1.5964810000    -5.4065100000
   36      O       2.7010910000     3.2307050000    -4.5692250000
   37      C       3.0233270000     3.6066050000    -5.9162070000
   38      H       3.7257030000     4.4545340000    -5.8330640000
   39      H       2.1120720000     3.9100350000    -6.4701680000
   40      H       3.4952810000     2.7629960000    -6.4592930000
   41      H       2.1851740000     2.6068460000     1.3064860000
   42      H      -0.1594750000    -9.1436230000     0.9001770000
   43      H      -0.4836040000    -9.1494410000    -0.8665660000
   44      H       0.1948560000    -1.4431750000     1.0622460000
 ----------------------------------------------------------------

   11   -2755.3142733257      7.34e-07  Convergence criterion met
 Total energy in the final basis set =    -2755.3142733257
        RIMP2         total energy =     -2760.4081205958 a.u.

                    Orbital Energies (a.u.)
 --------------------------------------------------------------

 Alpha MOs
 -- Occupied --
-92.0151 -92.0033 -91.9746 -91.9559 -26.3451 -20.6153 -20.5863 -20.5850
-20.5618 -11.4101 -11.3851 -11.3234 -11.3084 -11.3077 -11.3040 -11.2984
-11.2892 -11.2868 -11.2862 -11.2834 -11.2820 -11.2812 -11.2749 -11.2697
-11.2693 -11.2562 -11.2522 -11.2475 -11.2321  -9.0144  -9.0032  -8.9770
 -8.9585  -6.6951  -6.6944  -6.6939  -6.6841  -6.6834  -6.6823  -6.6580
 -6.6572  -6.6559  -6.6397  -6.6388  -6.6378  -1.6622  -1.4678  -1.4087
 -1.4076  -1.3705  -1.2343  -1.2008  -1.1717  -1.1397  -1.0976  -1.0472
 -1.0432  -1.0270  -1.0020  -0.9943  -0.9649  -0.9581  -0.9472  -0.9403
 -0.8917  -0.8707  -0.8621  -0.8176  -0.7966  -0.7880  -0.7829  -0.7662
 -0.7572  -0.7379  -0.7269  -0.7176  -0.6959  -0.6876  -0.6851  -0.6785
 -0.6744  -0.6610  -0.6549  -0.6474  -0.6340  -0.6296  -0.6179  -0.6142
 -0.6109  -0.6007  -0.5908  -0.5739  -0.5732  -0.5626  -0.5590  -0.5545
 -0.5411  -0.5327  -0.5315  -0.5238  -0.5119  -0.5089  -0.5061  -0.4994
 -0.4860  -0.4824  -0.4756  -0.4745  -0.4694  -0.4668  -0.4594  -0.4448
 -0.4213  -0.3989  -0.3833  -0.3682  -0.3508  -0.3060  -0.2876  -0.2175

          Ground-State Mulliken Net Atomic Charges

     Atom                 Charge (a.u.)
  ----------------------------------------
      1 C                    -0.069516
      2 C                    -0.273022
      3 S                    -0.141009
      4 C                    -0.041403
      5 H                     0.191622
      6 C                    -0.055546
      7 C                     0.223947
      8 C                     0.220320
      9 C                    -0.071124
     10 C                    -0.052211
     11 O                    -0.335451
     12 O                    -0.343263
     13 C                    -0.082627
     14 H                     0.119505
     15 H                     0.091892
     16 H                     0.093015
     17 C                    -0.086945
     18 H                     0.122896
     19 H                     0.091016
     20 H                     0.090218
     21 C                    -0.258917
     22 S                    -0.078930
     23 C                     0.024216
     24 H                     0.205018
     25 C                    -0.063211
     26 S                     0.095308
     27 C                    -0.157614
     28 C                    -0.029753
     29 C                    -0.077339
     30 S                     0.038459
     31 C                    -0.152755
     32 C                     0.393898
     33 F                    -0.205333
     34 C                     0.446802
     35 O                    -0.461084
     36 O                    -0.301150
     37 C                    -0.058327
     38 H                     0.121382
     39 H                     0.095254
     40 H                     0.095313
     41 H                     0.220180
     42 H                     0.115316
     43 H                     0.113218
     44 H                     0.187734
  ----------------------------------------
  Sum of atomic charges =     0.000000

                    Cartesian Multipole Moments
 -----------------------------------------------------------------
    Charge (ESU x 10^10)
                 0.0000
    Dipole Moment (Debye)
         X       2.4250      Y       3.8461      Z       3.2587
       Tot       5.5939
    Quadrupole Moments (Debye-Ang)
        XX    -177.1542     XY       4.9958     YY    -188.6564
        XZ      -1.8023     YZ      -4.9051     ZZ    -204.6766

 Total job time:  351.23s(wall), 11115.24s(cpu)
        *  Thank you very much for using Q-Chem.  Have a nice day.  *
