 Q-Chem 5.4, Q-Chem, Inc., Pleasanton, CA (2021)
 Q-Chem 5.4.0 for Intel X86 EM64T Linux

User input:
--------------------------------------------------------------
$molecule
0 1
C	0.318247	-8.517702	0.041330
C	-0.757333	-7.641575	0.049453
S	1.866383	-7.638634	0.024919
C	-0.380867	-6.264785	0.049488
H	-1.805573	-7.966081	0.055368
C	1.045647	-6.072714	0.051115
C	1.608077	-4.787049	0.026203
C	-1.282948	-5.162801	0.026637
C	-0.720187	-3.874817	-0.002586
C	0.707853	-3.683952	0.001903
O	-2.602386	-5.499772	0.054867
O	2.933517	-4.459055	-0.003348
C	3.881999	-5.329063	0.602384
H	4.825744	-4.755694	0.675079
H	4.070972	-6.238095	-0.009592
H	3.562152	-5.637262	1.621263
C	-3.588253	-4.572261	-0.381947
H	-4.535674	-5.139743	-0.449872
H	-3.342986	-4.153131	-1.381388
H	-3.728239	-3.739531	0.341040
C	1.080725	-2.306654	-0.000348
S	-1.542694	-2.306501	0.010924
C	-0.000000	-1.435185	-0.000000
H	2.127635	-1.978138	-0.003612
C	0.000000	0.000000	0.000000
S	0.309893	0.850039	1.507541
C	0.847011	2.328006	0.718873
C	0.310046	0.849645	-1.067872
C	0.783331	2.156746	-0.686410
S	0.229416	0.619785	-2.805516
C	0.823328	2.267711	-3.054530
C	1.063278	2.934142	-1.862551
F	1.515925	4.191824	-1.819088
C	0.978337	2.688069	-4.456084
O	0.722535	1.961921	-5.406510
O	1.433229	3.959697	-4.569225
C	1.607467	4.423139	-5.916207
H	1.977475	5.460158	-5.833064
H	0.647388	4.396602	-6.470168
H	2.339490	3.791823	-6.459293
H	1.161798	3.197007	1.306486
H	0.313367	-9.143623	-0.858809
H	0.325780	-9.149441	0.937378
H	-0.007439	-1.443175	-1.079945
$end

$rem
JOBTYPE		SP
EXCHANGE	HF
CORRELATION	pRIMP2
BASIS		cc-pvtz
METHOD		rimp2
AUX_BASIS	rimp2-cc-pvtz
SOLVENT_METHOD	PCM
PURECART	11111
SYMMETRY	false
MEM_TOTAL	110000
SCF_CONVERGENCE = 6
THRESH=10
GUI = 2
$end

$solvent
dielectric 4.90
$end
--------------------------------------------------------------

             Standard Nuclear Orientation (Angstroms)
    I     Atom           X                Y                Z
 ----------------------------------------------------------------
    1      C       0.3182470000    -8.5177020000     0.0413300000
    2      C      -0.7573330000    -7.6415750000     0.0494530000
    3      S       1.8663830000    -7.6386340000     0.0249190000
    4      C      -0.3808670000    -6.2647850000     0.0494880000
    5      H      -1.8055730000    -7.9660810000     0.0553680000
    6      C       1.0456470000    -6.0727140000     0.0511150000
    7      C       1.6080770000    -4.7870490000     0.0262030000
    8      C      -1.2829480000    -5.1628010000     0.0266370000
    9      C      -0.7201870000    -3.8748170000    -0.0025860000
   10      C       0.7078530000    -3.6839520000     0.0019030000
   11      O      -2.6023860000    -5.4997720000     0.0548670000
   12      O       2.9335170000    -4.4590550000    -0.0033480000
   13      C       3.8819990000    -5.3290630000     0.6023840000
   14      H       4.8257440000    -4.7556940000     0.6750790000
   15      H       4.0709720000    -6.2380950000    -0.0095920000
   16      H       3.5621520000    -5.6372620000     1.6212630000
   17      C      -3.5882530000    -4.5722610000    -0.3819470000
   18      H      -4.5356740000    -5.1397430000    -0.4498720000
   19      H      -3.3429860000    -4.1531310000    -1.3813880000
   20      H      -3.7282390000    -3.7395310000     0.3410400000
   21      C       1.0807250000    -2.3066540000    -0.0003480000
   22      S      -1.5426940000    -2.3065010000     0.0109240000
   23      C       0.0000000000    -1.4351850000     0.0000000000
   24      H       2.1276350000    -1.9781380000    -0.0036120000
   25      C       0.0000000000     0.0000000000     0.0000000000
   26      S       0.3098930000     0.8500390000     1.5075410000
   27      C       0.8470110000     2.3280060000     0.7188730000
   28      C       0.3100460000     0.8496450000    -1.0678720000
   29      C       0.7833310000     2.1567460000    -0.6864100000
   30      S       0.2294160000     0.6197850000    -2.8055160000
   31      C       0.8233280000     2.2677110000    -3.0545300000
   32      C       1.0632780000     2.9341420000    -1.8625510000
   33      F       1.5159250000     4.1918240000    -1.8190880000
   34      C       0.9783370000     2.6880690000    -4.4560840000
   35      O       0.7225350000     1.9619210000    -5.4065100000
   36      O       1.4332290000     3.9596970000    -4.5692250000
   37      C       1.6074670000     4.4231390000    -5.9162070000
   38      H       1.9774750000     5.4601580000    -5.8330640000
   39      H       0.6473880000     4.3966020000    -6.4701680000
   40      H       2.3394900000     3.7918230000    -6.4592930000
   41      H       1.1617980000     3.1970070000     1.3064860000
   42      H       0.3133670000    -9.1436230000    -0.8588090000
   43      H       0.3257800000    -9.1494410000     0.9373780000
   44      H      -0.0074390000    -1.4431750000    -1.0799450000
 ----------------------------------------------------------------

   11   -2755.3415021794      6.71e-07  Convergence criterion met
 Total energy in the final basis set =    -2755.3415021794
        RIMP2         total energy =     -2760.4307895967 a.u.

                    Orbital Energies (a.u.)
 --------------------------------------------------------------

 Alpha MOs
 -- Occupied --
-92.0112 -92.0015 -91.9744 -91.9580 -26.3450 -20.6155 -20.5870 -20.5862
-20.5619 -11.4103 -11.3848 -11.3145 -11.3087 -11.3065 -11.3061 -11.2989
-11.2979 -11.2893 -11.2857 -11.2837 -11.2828 -11.2817 -11.2789 -11.2728
-11.2713 -11.2577 -11.2575 -11.2495 -11.2365  -9.0102  -9.0016  -8.9767
 -8.9606  -6.6909  -6.6903  -6.6899  -6.6827  -6.6819  -6.6808  -6.6578
 -6.6570  -6.6557  -6.6419  -6.6410  -6.6399  -1.6619  -1.4680  -1.4097
 -1.4086  -1.3707  -1.2306  -1.2019  -1.1730  -1.1374  -1.1005  -1.0471
 -1.0451  -1.0240  -1.0027  -0.9965  -0.9630  -0.9583  -0.9484  -0.9415
 -0.8925  -0.8712  -0.8643  -0.8141  -0.7956  -0.7902  -0.7840  -0.7677
 -0.7591  -0.7349  -0.7267  -0.7107  -0.7010  -0.6944  -0.6854  -0.6795
 -0.6745  -0.6652  -0.6551  -0.6482  -0.6349  -0.6299  -0.6198  -0.6147
 -0.6109  -0.5994  -0.5926  -0.5770  -0.5708  -0.5650  -0.5572  -0.5543
 -0.5498  -0.5317  -0.5278  -0.5252  -0.5127  -0.5091  -0.5068  -0.5012
 -0.4852  -0.4816  -0.4758  -0.4747  -0.4706  -0.4678  -0.4597  -0.4456
 -0.4210  -0.4009  -0.3844  -0.3697  -0.3507  -0.3037  -0.2887  -0.2205

          Ground-State Mulliken Net Atomic Charges

     Atom                 Charge (a.u.)
  ----------------------------------------
      1 C                    -0.070172
      2 C                    -0.260618
      3 S                    -0.135537
      4 C                    -0.044678
      5 H                     0.193417
      6 C                    -0.052350
      7 C                     0.223192
      8 C                     0.229080
      9 C                    -0.085086
     10 C                    -0.049215
     11 O                    -0.335547
     12 O                    -0.343250
     13 C                    -0.082500
     14 H                     0.119867
     15 H                     0.091979
     16 H                     0.092547
     17 C                    -0.086102
     18 H                     0.122610
     19 H                     0.092351
     20 H                     0.090104
     21 C                    -0.242470
     22 S                    -0.072958
     23 C                     0.052120
     24 H                     0.207070
     25 C                    -0.077795
     26 S                     0.087739
     27 C                    -0.175594
     28 C                    -0.003436
     29 C                    -0.098112
     30 S                     0.006820
     31 C                    -0.159407
     32 C                     0.397915
     33 F                    -0.205229
     34 C                     0.445168
     35 O                    -0.461174
     36 O                    -0.301017
     37 C                    -0.058394
     38 H                     0.121493
     39 H                     0.095269
     40 H                     0.095242
     41 H                     0.217680
     42 H                     0.117272
     43 H                     0.114782
     44 H                     0.186921
  ----------------------------------------
  Sum of atomic charges =     0.000000

                    Cartesian Multipole Moments
 -----------------------------------------------------------------
    Charge (ESU x 10^10)
                -0.0000
    Dipole Moment (Debye)
         X       0.9665      Y       3.0694      Z       2.3112
       Tot       3.9619
    Quadrupole Moments (Debye-Ang)
        XX    -183.6161     XY       8.8654     YY    -176.7639
        XZ       3.1603     YZ      -7.2628     ZZ    -204.2332

 Total job time:  350.59s(wall), 10880.29s(cpu)
        *  Thank you very much for using Q-Chem.  Have a nice day.  *
