 Q-Chem 5.4, Q-Chem, Inc., Pleasanton, CA (2021)
 Q-Chem 5.4.0 for Intel X86 EM64T Linux

User input:
--------------------------------------------------------------
$molecule
0 1
C	0.172904	-8.517702	0.270358
C	-0.524688	-7.641575	-0.548363
S	1.180599	-7.638634	1.445750
C	-0.282727	-6.264785	-0.259951
H	-1.203014	-7.966081	-1.347559
C	0.632972	-6.072714	0.833868
C	1.013580	-4.787049	1.248701
C	-0.845068	-5.162801	-0.965673
C	-0.460946	-3.874817	-0.553357
C	0.453541	-3.683952	0.543470
O	-1.714812	-5.499772	-1.958276
O	1.888193	-4.459055	2.245053
C	2.033848	-5.329063	3.360989
H	2.584788	-4.755694	4.130667
H	2.624118	-6.238095	3.112380
H	1.047748	-5.637262	3.770895
C	-2.013896	-4.572261	-2.994272
H	-2.570853	-5.139743	-3.763700
H	-1.090625	-4.153131	-3.448815
H	-2.657717	-3.739531	-2.636780
C	0.694943	-2.306654	0.827659
S	-0.999993	-2.306501	-1.174750
C	-0.000000	-1.435185	-0.000000
H	1.370385	-1.978138	1.627541
C	0.000000	0.000000	0.000000
S	0.079327	0.901280	1.507541
C	0.215617	2.467903	0.718873
C	0.079577	0.900940	-1.067872
C	0.198433	2.285998	-0.686410
S	0.061187	0.658044	-2.805516
C	0.208347	2.403534	-3.054530
C	0.267636	3.109360	-1.862551
F	0.379347	4.441341	-1.819088
C	0.249278	2.849688	-4.456084
O	0.190132	2.082076	-5.406510
O	0.359548	4.195721	-4.569225
C	0.407901	4.688467	-5.916207
H	0.496901	5.785916	-5.833064
H	-0.512596	4.414348	-6.470168
H	1.278377	4.268124	-6.459293
H	0.294764	3.388767	1.306486
H	0.859314	-9.143623	-0.311979
H	-0.508666	-9.149441	0.852097
H	0.822504	-1.443175	-0.699874
$end

$rem
JOBTYPE		SP
EXCHANGE	HF
CORRELATION	pRIMP2
BASIS		cc-pvtz
METHOD		rimp2
AUX_BASIS	rimp2-cc-pvtz
SOLVENT_METHOD	PCM
PURECART	11111
SYMMETRY	false
MEM_TOTAL	110000
SCF_CONVERGENCE = 6
THRESH=10
GUI = 2
$end

$solvent
dielectric 4.90
$end
--------------------------------------------------------------

             Standard Nuclear Orientation (Angstroms)
    I     Atom           X                Y                Z
 ----------------------------------------------------------------
    1      C       0.1729040000    -8.5177020000     0.2703580000
    2      C      -0.5246880000    -7.6415750000    -0.5483630000
    3      S       1.1805990000    -7.6386340000     1.4457500000
    4      C      -0.2827270000    -6.2647850000    -0.2599510000
    5      H      -1.2030140000    -7.9660810000    -1.3475590000
    6      C       0.6329720000    -6.0727140000     0.8338680000
    7      C       1.0135800000    -4.7870490000     1.2487010000
    8      C      -0.8450680000    -5.1628010000    -0.9656730000
    9      C      -0.4609460000    -3.8748170000    -0.5533570000
   10      C       0.4535410000    -3.6839520000     0.5434700000
   11      O      -1.7148120000    -5.4997720000    -1.9582760000
   12      O       1.8881930000    -4.4590550000     2.2450530000
   13      C       2.0338480000    -5.3290630000     3.3609890000
   14      H       2.5847880000    -4.7556940000     4.1306670000
   15      H       2.6241180000    -6.2380950000     3.1123800000
   16      H       1.0477480000    -5.6372620000     3.7708950000
   17      C      -2.0138960000    -4.5722610000    -2.9942720000
   18      H      -2.5708530000    -5.1397430000    -3.7637000000
   19      H      -1.0906250000    -4.1531310000    -3.4488150000
   20      H      -2.6577170000    -3.7395310000    -2.6367800000
   21      C       0.6949430000    -2.3066540000     0.8276590000
   22      S      -0.9999930000    -2.3065010000    -1.1747500000
   23      C       0.0000000000    -1.4351850000     0.0000000000
   24      H       1.3703850000    -1.9781380000     1.6275410000
   25      C       0.0000000000     0.0000000000     0.0000000000
   26      S       0.0793270000     0.9012800000     1.5075410000
   27      C       0.2156170000     2.4679030000     0.7188730000
   28      C       0.0795770000     0.9009400000    -1.0678720000
   29      C       0.1984330000     2.2859980000    -0.6864100000
   30      S       0.0611870000     0.6580440000    -2.8055160000
   31      C       0.2083470000     2.4035340000    -3.0545300000
   32      C       0.2676360000     3.1093600000    -1.8625510000
   33      F       0.3793470000     4.4413410000    -1.8190880000
   34      C       0.2492780000     2.8496880000    -4.4560840000
   35      O       0.1901320000     2.0820760000    -5.4065100000
   36      O       0.3595480000     4.1957210000    -4.5692250000
   37      C       0.4079010000     4.6884670000    -5.9162070000
   38      H       0.4969010000     5.7859160000    -5.8330640000
   39      H      -0.5125960000     4.4143480000    -6.4701680000
   40      H       1.2783770000     4.2681240000    -6.4592930000
   41      H       0.2947640000     3.3887670000     1.3064860000
   42      H       0.8593140000    -9.1436230000    -0.3119790000
   43      H      -0.5086660000    -9.1494410000     0.8520970000
   44      H       0.8225040000    -1.4431750000    -0.6998740000
 ----------------------------------------------------------------

   11   -2755.3461810595      7.71e-07  Convergence criterion met
 Total energy in the final basis set =    -2755.3461810595
        RIMP2         total energy =     -2760.4363111453 a.u.

                    Orbital Energies (a.u.)
 --------------------------------------------------------------

 Alpha MOs
 -- Occupied --
-92.0141 -91.9976 -91.9789 -91.9592 -26.3432 -20.6150 -20.5878 -20.5876
-20.5615 -11.4095 -11.3821 -11.3097 -11.3090 -11.3080 -11.3038 -11.2977
-11.2959 -11.2889 -11.2849 -11.2843 -11.2841 -11.2834 -11.2824 -11.2744
-11.2731 -11.2599 -11.2590 -11.2506 -11.2388  -9.0127  -8.9977  -8.9812
 -8.9618  -6.6935  -6.6929  -6.6924  -6.6787  -6.6780  -6.6769  -6.6623
 -6.6614  -6.6601  -6.6430  -6.6421  -6.6410  -1.6602  -1.4674  -1.4110
 -1.4096  -1.3701  -1.2297  -1.2027  -1.1746  -1.1368  -1.1012  -1.0477
 -1.0447  -1.0234  -1.0044  -0.9979  -0.9636  -0.9573  -0.9491  -0.9417
 -0.8942  -0.8706  -0.8648  -0.8152  -0.7926  -0.7900  -0.7853  -0.7692
 -0.7578  -0.7363  -0.7251  -0.7090  -0.6992  -0.6953  -0.6848  -0.6809
 -0.6740  -0.6647  -0.6560  -0.6490  -0.6359  -0.6315  -0.6209  -0.6156
 -0.6111  -0.5993  -0.5932  -0.5767  -0.5709  -0.5650  -0.5592  -0.5568
 -0.5503  -0.5317  -0.5305  -0.5257  -0.5141  -0.5099  -0.5078  -0.5013
 -0.4859  -0.4801  -0.4772  -0.4740  -0.4722  -0.4660  -0.4610  -0.4468
 -0.4302  -0.3962  -0.3857  -0.3708  -0.3501  -0.2988  -0.2893  -0.2195

          Ground-State Mulliken Net Atomic Charges

     Atom                 Charge (a.u.)
  ----------------------------------------
      1 C                    -0.070454
      2 C                    -0.253995
      3 S                    -0.133463
      4 C                    -0.046169
      5 H                     0.194334
      6 C                    -0.051335
      7 C                     0.223039
      8 C                     0.231265
      9 C                    -0.079265
     10 C                    -0.055216
     11 O                    -0.334673
     12 O                    -0.343887
     13 C                    -0.082751
     14 H                     0.120033
     15 H                     0.092284
     16 H                     0.092851
     17 C                    -0.088067
     18 H                     0.123639
     19 H                     0.093789
     20 H                     0.090542
     21 C                    -0.267037
     22 S                    -0.077940
     23 C                     0.082371
     24 H                     0.205958
     25 C                    -0.035984
     26 S                     0.084710
     27 C                    -0.199974
     28 C                    -0.019935
     29 C                    -0.112675
     30 S                    -0.001779
     31 C                    -0.156797
     32 C                     0.398535
     33 F                    -0.206951
     34 C                     0.444889
     35 O                    -0.460656
     36 O                    -0.300568
     37 C                    -0.058740
     38 H                     0.121468
     39 H                     0.095194
     40 H                     0.095040
     41 H                     0.216566
     42 H                     0.118222
     43 H                     0.115744
     44 H                     0.197838
  ----------------------------------------
  Sum of atomic charges =     0.000000

                    Cartesian Multipole Moments
 -----------------------------------------------------------------
    Charge (ESU x 10^10)
                 0.0000
    Dipole Moment (Debye)
         X       0.5420      Y       2.0257      Z       2.4675
       Tot       3.2382
    Quadrupole Moments (Debye-Ang)
        XX    -199.3714     XY       3.8995     YY    -171.8921
        XZ       5.7781     YZ      -4.5565     ZZ    -190.2790

 Total job time:  333.21s(wall), 10481.00s(cpu)
        *  Thank you very much for using Q-Chem.  Have a nice day.  *
