 Q-Chem 5.4, Q-Chem, Inc., Pleasanton, CA (2021)
 Q-Chem 5.4.0 for Intel X86 EM64T Linux

User input:
--------------------------------------------------------------
$molecule
0 1
C	0.296276	-8.517702	-0.123330
C	-0.631143	-7.641575	0.421494
S	1.628795	-7.638634	-0.911611
C	-0.305097	-6.264785	0.233291
H	-1.535988	-7.966081	0.950737
C	0.931114	-6.072714	-0.478557
C	1.405737	-4.787049	-0.781346
C	-1.097747	-5.162801	0.664542
C	-0.624993	-3.874817	0.357854
C	0.613970	-3.683952	-0.352278
O	-2.226300	-5.499772	1.348709
O	2.538827	-4.459055	-1.469658
C	3.663102	-5.329063	-1.419319
H	4.516756	-4.755694	-1.828237
H	3.520769	-6.238095	-2.043793
H	3.895546	-5.637262	-0.377021
C	-3.298492	-4.572261	1.463351
H	-4.152945	-5.139743	1.878237
H	-3.585804	-4.153131	0.475176
H	-3.058230	-3.739531	2.159469
C	0.935761	-2.306654	-0.540664
S	-1.330550	-2.306501	0.780808
C	-0.000000	-1.435185	-0.000000
H	1.840780	-1.978138	-1.066946
C	0.000000	0.000000	0.000000
S	0.783786	0.451972	1.507541
C	2.145261	1.238908	0.718873
C	0.783650	0.451572	-1.067872
C	1.986396	1.148648	-0.686410
S	0.574133	0.327317	-2.805516
C	2.088363	1.207943	-3.054530
C	2.700548	1.564221	-1.862551
F	3.855718	2.236706	-1.819088
C	2.477307	1.430318	-4.456084
O	1.814592	1.038482	-5.406510
O	3.643162	2.112042	-4.569225
C	4.074530	2.355061	-5.916207
H	5.024556	2.911627	-5.833064
H	3.322010	2.951860	-6.470168
H	4.229490	1.400910	-6.459293
H	2.944986	1.702260	1.306486
H	-0.158021	-9.143623	-0.900433
H	0.750822	-9.149441	0.648903
H	-0.546415	-1.443175	-0.931540
$end

$rem
JOBTYPE		SP
EXCHANGE	HF
CORRELATION	pRIMP2
BASIS		cc-pvtz
METHOD		rimp2
AUX_BASIS	rimp2-cc-pvtz
SOLVENT_METHOD	PCM
PURECART	11111
SYMMETRY	false
MEM_TOTAL	110000
SCF_CONVERGENCE = 6
THRESH=10
GUI = 2
$end

$solvent
dielectric 4.90
$end
--------------------------------------------------------------

             Standard Nuclear Orientation (Angstroms)
    I     Atom           X                Y                Z
 ----------------------------------------------------------------
    1      C       0.2962760000    -8.5177020000    -0.1233300000
    2      C      -0.6311430000    -7.6415750000     0.4214940000
    3      S       1.6287950000    -7.6386340000    -0.9116110000
    4      C      -0.3050970000    -6.2647850000     0.2332910000
    5      H      -1.5359880000    -7.9660810000     0.9507370000
    6      C       0.9311140000    -6.0727140000    -0.4785570000
    7      C       1.4057370000    -4.7870490000    -0.7813460000
    8      C      -1.0977470000    -5.1628010000     0.6645420000
    9      C      -0.6249930000    -3.8748170000     0.3578540000
   10      C       0.6139700000    -3.6839520000    -0.3522780000
   11      O      -2.2263000000    -5.4997720000     1.3487090000
   12      O       2.5388270000    -4.4590550000    -1.4696580000
   13      C       3.6631020000    -5.3290630000    -1.4193190000
   14      H       4.5167560000    -4.7556940000    -1.8282370000
   15      H       3.5207690000    -6.2380950000    -2.0437930000
   16      H       3.8955460000    -5.6372620000    -0.3770210000
   17      C      -3.2984920000    -4.5722610000     1.4633510000
   18      H      -4.1529450000    -5.1397430000     1.8782370000
   19      H      -3.5858040000    -4.1531310000     0.4751760000
   20      H      -3.0582300000    -3.7395310000     2.1594690000
   21      C       0.9357610000    -2.3066540000    -0.5406640000
   22      S      -1.3305500000    -2.3065010000     0.7808080000
   23      C       0.0000000000    -1.4351850000     0.0000000000
   24      H       1.8407800000    -1.9781380000    -1.0669460000
   25      C       0.0000000000     0.0000000000     0.0000000000
   26      S       0.7837860000     0.4519720000     1.5075410000
   27      C       2.1452610000     1.2389080000     0.7188730000
   28      C       0.7836500000     0.4515720000    -1.0678720000
   29      C       1.9863960000     1.1486480000    -0.6864100000
   30      S       0.5741330000     0.3273170000    -2.8055160000
   31      C       2.0883630000     1.2079430000    -3.0545300000
   32      C       2.7005480000     1.5642210000    -1.8625510000
   33      F       3.8557180000     2.2367060000    -1.8190880000
   34      C       2.4773070000     1.4303180000    -4.4560840000
   35      O       1.8145920000     1.0384820000    -5.4065100000
   36      O       3.6431620000     2.1120420000    -4.5692250000
   37      C       4.0745300000     2.3550610000    -5.9162070000
   38      H       5.0245560000     2.9116270000    -5.8330640000
   39      H       3.3220100000     2.9518600000    -6.4701680000
   40      H       4.2294900000     1.4009100000    -6.4592930000
   41      H       2.9449860000     1.7022600000     1.3064860000
   42      H      -0.1580210000    -9.1436230000    -0.9004330000
   43      H       0.7508220000    -9.1494410000     0.6489030000
   44      H      -0.5464150000    -1.4431750000    -0.9315400000
 ----------------------------------------------------------------

   11   -2755.2826104204      7.20e-07  Convergence criterion met
 Total energy in the final basis set =    -2755.2826104204
        RIMP2         total energy =     -2760.3847894602 a.u.

                    Orbital Energies (a.u.)
 --------------------------------------------------------------

 Alpha MOs
 -- Occupied --
-92.0126 -92.0087 -91.9705 -91.9559 -26.3483 -20.6169 -20.5862 -20.5839
-20.5635 -11.4123 -11.3896 -11.3366 -11.3233 -11.3075 -11.3021 -11.3013
-11.2908 -11.2902 -11.2824 -11.2823 -11.2794 -11.2738 -11.2699 -11.2696
-11.2694 -11.2557 -11.2529 -11.2473 -11.2315  -9.0122  -9.0088  -8.9728
 -8.9586  -6.6931  -6.6924  -6.6914  -6.6894  -6.6884  -6.6882  -6.6539
 -6.6531  -6.6519  -6.6398  -6.6389  -6.6379  -1.6652  -1.4695  -1.4084
 -1.4069  -1.3723  -1.2431  -1.1996  -1.1715  -1.1420  -1.0995  -1.0515
 -1.0430  -1.0281  -1.0007  -0.9944  -0.9657  -0.9592  -0.9481  -0.9417
 -0.8909  -0.8743  -0.8592  -0.8160  -0.7996  -0.7910  -0.7812  -0.7655
 -0.7605  -0.7347  -0.7298  -0.7140  -0.7011  -0.6931  -0.6870  -0.6799
 -0.6759  -0.6666  -0.6543  -0.6471  -0.6385  -0.6298  -0.6178  -0.6150
 -0.6109  -0.6031  -0.5922  -0.5765  -0.5732  -0.5665  -0.5564  -0.5551
 -0.5408  -0.5327  -0.5261  -0.5213  -0.5136  -0.5095  -0.5056  -0.4994
 -0.4875  -0.4815  -0.4774  -0.4747  -0.4676  -0.4637  -0.4556  -0.4433
 -0.4184  -0.3972  -0.3797  -0.3670  -0.3540  -0.3135  -0.2864  -0.2159

          Ground-State Mulliken Net Atomic Charges

     Atom                 Charge (a.u.)
  ----------------------------------------
      1 C                    -0.069112
      2 C                    -0.275157
      3 S                    -0.141077
      4 C                    -0.040184
      5 H                     0.191439
      6 C                    -0.052830
      7 C                     0.225417
      8 C                     0.221328
      9 C                    -0.071852
     10 C                    -0.054420
     11 O                    -0.336268
     12 O                    -0.344413
     13 C                    -0.082753
     14 H                     0.119158
     15 H                     0.092394
     16 H                     0.092471
     17 C                    -0.086768
     18 H                     0.122882
     19 H                     0.091404
     20 H                     0.089923
     21 C                    -0.270718
     22 S                    -0.108460
     23 C                     0.092289
     24 H                     0.205276
     25 C                    -0.208951
     26 S                     0.100119
     27 C                    -0.113655
     28 C                     0.037645
     29 C                    -0.113731
     30 S                     0.065147
     31 C                    -0.152905
     32 C                     0.407030
     33 F                    -0.203229
     34 C                     0.448553
     35 O                    -0.461271
     36 O                    -0.301217
     37 C                    -0.058014
     38 H                     0.121829
     39 H                     0.095557
     40 H                     0.095646
     41 H                     0.220548
     42 H                     0.115343
     43 H                     0.112884
     44 H                     0.182700
  ----------------------------------------
  Sum of atomic charges =     0.000000

                    Cartesian Multipole Moments
 -----------------------------------------------------------------
    Charge (ESU x 10^10)
                 0.0000
    Dipole Moment (Debye)
         X       3.5340      Y       3.5273      Z       1.8190
       Tot       5.3141
    Quadrupole Moments (Debye-Ang)
        XX    -170.6571     XY      11.0340     YY    -194.7333
        XZ      -9.7814     YZ      -5.5000     ZZ    -203.4797

 Total job time:  332.95s(wall), 10741.36s(cpu)
        *  Thank you very much for using Q-Chem.  Have a nice day.  *
