 Q-Chem 5.4, Q-Chem, Inc., Pleasanton, CA (2021)
 Q-Chem 5.4.0 for Intel X86 EM64T Linux

User input:
--------------------------------------------------------------
$molecule
0 1
C	0.306235	-8.517702	0.095966
C	-0.754415	-7.641575	-0.082807
S	1.833702	-7.638634	0.348635
C	-0.383675	-6.264785	-0.017401
H	-1.787757	-7.966081	-0.259008
C	1.020885	-6.072714	0.231913
C	1.579097	-4.787049	0.305044
C	-1.268082	-5.162801	-0.196549
C	-0.708796	-3.874817	-0.127606
C	0.696769	-3.683952	0.124792
O	-2.572378	-5.499772	-0.397867
O	2.889532	-4.459055	0.506103
C	3.718420	-5.329063	1.267335
H	4.635204	-4.755694	1.502804
H	4.010790	-6.238095	0.697471
H	3.226506	-5.637262	2.215194
C	-3.467415	-4.572261	-0.999238
H	-4.388648	-5.139743	-1.230649
H	-3.052323	-4.153131	-1.940905
H	-3.730819	-3.739531	-0.311543
C	1.064366	-2.306654	0.187323
S	-1.521154	-2.306501	-0.257128
C	-0.000000	-1.435185	-0.000000
H	2.095939	-1.978138	0.365903
C	0.000000	0.000000	0.000000
S	0.309893	0.850039	1.507541
C	0.847011	2.328006	0.718873
C	0.310046	0.849645	-1.067872
C	0.783331	2.156746	-0.686410
S	0.229416	0.619785	-2.805516
C	0.823328	2.267711	-3.054530
C	1.063278	2.934142	-1.862551
F	1.515925	4.191824	-1.819088
C	0.978337	2.688069	-4.456084
O	0.722535	1.961921	-5.406510
O	1.433229	3.959697	-4.569225
C	1.607467	4.423139	-5.916207
H	1.977475	5.460158	-5.833064
H	0.647388	4.396602	-6.470168
H	2.339490	3.791823	-6.459293
H	1.161798	3.197007	1.306486
H	0.457736	-9.143623	-0.791346
H	0.158056	-9.149441	0.979708
H	0.180205	-1.443175	-1.064830
$end

$rem
JOBTYPE		SP
EXCHANGE	HF
CORRELATION	pRIMP2
BASIS		cc-pvtz
METHOD		rimp2
AUX_BASIS	rimp2-cc-pvtz
SOLVENT_METHOD	PCM
PURECART	11111
SYMMETRY	false
MEM_TOTAL	110000
SCF_CONVERGENCE = 6
THRESH=10
GUI = 2
$end

$solvent
dielectric 4.90
$end
--------------------------------------------------------------

             Standard Nuclear Orientation (Angstroms)
    I     Atom           X                Y                Z
 ----------------------------------------------------------------
    1      C       0.3062350000    -8.5177020000     0.0959660000
    2      C      -0.7544150000    -7.6415750000    -0.0828070000
    3      S       1.8337020000    -7.6386340000     0.3486350000
    4      C      -0.3836750000    -6.2647850000    -0.0174010000
    5      H      -1.7877570000    -7.9660810000    -0.2590080000
    6      C       1.0208850000    -6.0727140000     0.2319130000
    7      C       1.5790970000    -4.7870490000     0.3050440000
    8      C      -1.2680820000    -5.1628010000    -0.1965490000
    9      C      -0.7087960000    -3.8748170000    -0.1276060000
   10      C       0.6967690000    -3.6839520000     0.1247920000
   11      O      -2.5723780000    -5.4997720000    -0.3978670000
   12      O       2.8895320000    -4.4590550000     0.5061030000
   13      C       3.7184200000    -5.3290630000     1.2673350000
   14      H       4.6352040000    -4.7556940000     1.5028040000
   15      H       4.0107900000    -6.2380950000     0.6974710000
   16      H       3.2265060000    -5.6372620000     2.2151940000
   17      C      -3.4674150000    -4.5722610000    -0.9992380000
   18      H      -4.3886480000    -5.1397430000    -1.2306490000
   19      H      -3.0523230000    -4.1531310000    -1.9409050000
   20      H      -3.7308190000    -3.7395310000    -0.3115430000
   21      C       1.0643660000    -2.3066540000     0.1873230000
   22      S      -1.5211540000    -2.3065010000    -0.2571280000
   23      C       0.0000000000    -1.4351850000     0.0000000000
   24      H       2.0959390000    -1.9781380000     0.3659030000
   25      C       0.0000000000     0.0000000000     0.0000000000
   26      S       0.3098930000     0.8500390000     1.5075410000
   27      C       0.8470110000     2.3280060000     0.7188730000
   28      C       0.3100460000     0.8496450000    -1.0678720000
   29      C       0.7833310000     2.1567460000    -0.6864100000
   30      S       0.2294160000     0.6197850000    -2.8055160000
   31      C       0.8233280000     2.2677110000    -3.0545300000
   32      C       1.0632780000     2.9341420000    -1.8625510000
   33      F       1.5159250000     4.1918240000    -1.8190880000
   34      C       0.9783370000     2.6880690000    -4.4560840000
   35      O       0.7225350000     1.9619210000    -5.4065100000
   36      O       1.4332290000     3.9596970000    -4.5692250000
   37      C       1.6074670000     4.4231390000    -5.9162070000
   38      H       1.9774750000     5.4601580000    -5.8330640000
   39      H       0.6473880000     4.3966020000    -6.4701680000
   40      H       2.3394900000     3.7918230000    -6.4592930000
   41      H       1.1617980000     3.1970070000     1.3064860000
   42      H       0.4577360000    -9.1436230000    -0.7913460000
   43      H       0.1580560000    -9.1494410000     0.9797080000
   44      H       0.1802050000    -1.4431750000    -1.0648300000
 ----------------------------------------------------------------

   11   -2755.3410108068      6.80e-07  Convergence criterion met
 Total energy in the final basis set =    -2755.3410108068
        RIMP2         total energy =     -2760.4306225086 a.u.

                    Orbital Energies (a.u.)
 --------------------------------------------------------------

 Alpha MOs
 -- Occupied --
-92.0118 -92.0016 -91.9742 -91.9581 -26.3449 -20.6155 -20.5871 -20.5861
-20.5619 -11.4103 -11.3848 -11.3139 -11.3088 -11.3061 -11.3057 -11.2989
-11.2984 -11.2893 -11.2857 -11.2836 -11.2828 -11.2818 -11.2789 -11.2729
-11.2715 -11.2578 -11.2577 -11.2495 -11.2366  -9.0107  -9.0017  -8.9766
 -8.9607  -6.6915  -6.6908  -6.6904  -6.6827  -6.6819  -6.6808  -6.6577
 -6.6568  -6.6555  -6.6420  -6.6410  -6.6400  -1.6619  -1.4679  -1.4098
 -1.4086  -1.3707  -1.2307  -1.2019  -1.1731  -1.1375  -1.1005  -1.0471
 -1.0451  -1.0240  -1.0027  -0.9965  -0.9633  -0.9580  -0.9484  -0.9416
 -0.8925  -0.8712  -0.8642  -0.8147  -0.7950  -0.7901  -0.7842  -0.7678
 -0.7591  -0.7349  -0.7267  -0.7106  -0.7010  -0.6944  -0.6854  -0.6796
 -0.6745  -0.6653  -0.6551  -0.6482  -0.6348  -0.6300  -0.6198  -0.6148
 -0.6108  -0.5995  -0.5928  -0.5768  -0.5708  -0.5647  -0.5573  -0.5543
 -0.5509  -0.5317  -0.5277  -0.5248  -0.5127  -0.5092  -0.5069  -0.5011
 -0.4854  -0.4815  -0.4758  -0.4747  -0.4713  -0.4676  -0.4596  -0.4456
 -0.4223  -0.3999  -0.3845  -0.3697  -0.3505  -0.3036  -0.2887  -0.2204

          Ground-State Mulliken Net Atomic Charges

     Atom                 Charge (a.u.)
  ----------------------------------------
      1 C                    -0.070291
      2 C                    -0.260386
      3 S                    -0.135342
      4 C                    -0.044654
      5 H                     0.193405
      6 C                    -0.051811
      7 C                     0.222321
      8 C                     0.228482
      9 C                    -0.083516
     10 C                    -0.048574
     11 O                    -0.335753
     12 O                    -0.343495
     13 C                    -0.082512
     14 H                     0.119841
     15 H                     0.092089
     16 H                     0.092568
     17 C                    -0.086101
     18 H                     0.122585
     19 H                     0.092532
     20 H                     0.090038
     21 C                    -0.244933
     22 S                    -0.073300
     23 C                     0.045895
     24 H                     0.207854
     25 C                    -0.074577
     26 S                     0.088261
     27 C                    -0.177101
     28 C                     0.001927
     29 C                    -0.099243
     30 S                     0.007138
     31 C                    -0.158679
     32 C                     0.397053
     33 F                    -0.205217
     34 C                     0.444827
     35 O                    -0.461123
     36 O                    -0.301007
     37 C                    -0.058390
     38 H                     0.121492
     39 H                     0.095261
     40 H                     0.095237
     41 H                     0.217511
     42 H                     0.117413
     43 H                     0.114891
     44 H                     0.187385
  ----------------------------------------
  Sum of atomic charges =     0.000000

                    Cartesian Multipole Moments
 -----------------------------------------------------------------
    Charge (ESU x 10^10)
                -0.0000
    Dipole Moment (Debye)
         X       1.0538      Y       3.0372      Z       2.3227
       Tot       3.9661
    Quadrupole Moments (Debye-Ang)
        XX    -186.0149     XY       8.7550     YY    -176.6374
        XZ       5.2805     YZ      -6.6749     ZZ    -201.8038

 Total job time:  359.17s(wall), 10986.01s(cpu)
        *  Thank you very much for using Q-Chem.  Have a nice day.  *
