 Q-Chem 5.4, Q-Chem, Inc., Pleasanton, CA (2021)
 Q-Chem 5.4.0 for Intel X86 EM64T Linux

User input:
--------------------------------------------------------------
$molecule
0 1
C	0.306235	-8.517702	0.095966
C	-0.754415	-7.641575	-0.082807
S	1.833702	-7.638634	0.348635
C	-0.383675	-6.264785	-0.017401
H	-1.787757	-7.966081	-0.259008
C	1.020885	-6.072714	0.231913
C	1.579097	-4.787049	0.305044
C	-1.268082	-5.162801	-0.196549
C	-0.708796	-3.874817	-0.127606
C	0.696769	-3.683952	0.124792
O	-2.572378	-5.499772	-0.397867
O	2.889532	-4.459055	0.506103
C	3.718420	-5.329063	1.267335
H	4.635204	-4.755694	1.502804
H	4.010790	-6.238095	0.697471
H	3.226506	-5.637262	2.215194
C	-3.467415	-4.572261	-0.999238
H	-4.388648	-5.139743	-1.230649
H	-3.052323	-4.153131	-1.940905
H	-3.730819	-3.739531	-0.311543
C	1.064366	-2.306654	0.187323
S	-1.521154	-2.306501	-0.257128
C	-0.000000	-1.435185	-0.000000
H	2.095939	-1.978138	0.365903
C	0.000000	0.000000	0.000000
S	0.581934	0.692785	1.507541
C	1.592155	1.897915	0.718873
C	0.581944	0.692363	-1.067872
C	1.473741	1.758764	-0.686410
S	0.427560	0.503942	-2.805516
C	1.549278	1.849357	-3.054530
C	2.002690	2.393529	-1.862551
F	2.858191	3.420549	-1.819088
C	1.838710	2.191348	-4.456084
O	1.349977	1.596481	-5.406510
O	2.701091	3.230705	-4.569225
C	3.023327	3.606605	-5.916207
H	3.725703	4.454534	-5.833064
H	2.112072	3.910035	-6.470168
H	3.495281	2.762996	-6.459293
H	2.185174	2.606846	1.306486
H	0.457736	-9.143623	-0.791346
H	0.158056	-9.149441	0.979708
H	0.180205	-1.443175	-1.064830
$end

$rem
JOBTYPE		SP
EXCHANGE	HF
CORRELATION	pRIMP2
BASIS		cc-pvtz
METHOD		rimp2
AUX_BASIS	rimp2-cc-pvtz
SOLVENT_METHOD	PCM
PURECART	11111
SYMMETRY	false
MEM_TOTAL	110000
SCF_CONVERGENCE = 6
THRESH=10
GUI = 2
$end

$solvent
dielectric 4.90
$end
--------------------------------------------------------------

             Standard Nuclear Orientation (Angstroms)
    I     Atom           X                Y                Z
 ----------------------------------------------------------------
    1      C       0.3062350000    -8.5177020000     0.0959660000
    2      C      -0.7544150000    -7.6415750000    -0.0828070000
    3      S       1.8337020000    -7.6386340000     0.3486350000
    4      C      -0.3836750000    -6.2647850000    -0.0174010000
    5      H      -1.7877570000    -7.9660810000    -0.2590080000
    6      C       1.0208850000    -6.0727140000     0.2319130000
    7      C       1.5790970000    -4.7870490000     0.3050440000
    8      C      -1.2680820000    -5.1628010000    -0.1965490000
    9      C      -0.7087960000    -3.8748170000    -0.1276060000
   10      C       0.6967690000    -3.6839520000     0.1247920000
   11      O      -2.5723780000    -5.4997720000    -0.3978670000
   12      O       2.8895320000    -4.4590550000     0.5061030000
   13      C       3.7184200000    -5.3290630000     1.2673350000
   14      H       4.6352040000    -4.7556940000     1.5028040000
   15      H       4.0107900000    -6.2380950000     0.6974710000
   16      H       3.2265060000    -5.6372620000     2.2151940000
   17      C      -3.4674150000    -4.5722610000    -0.9992380000
   18      H      -4.3886480000    -5.1397430000    -1.2306490000
   19      H      -3.0523230000    -4.1531310000    -1.9409050000
   20      H      -3.7308190000    -3.7395310000    -0.3115430000
   21      C       1.0643660000    -2.3066540000     0.1873230000
   22      S      -1.5211540000    -2.3065010000    -0.2571280000
   23      C       0.0000000000    -1.4351850000     0.0000000000
   24      H       2.0959390000    -1.9781380000     0.3659030000
   25      C       0.0000000000     0.0000000000     0.0000000000
   26      S       0.5819340000     0.6927850000     1.5075410000
   27      C       1.5921550000     1.8979150000     0.7188730000
   28      C       0.5819440000     0.6923630000    -1.0678720000
   29      C       1.4737410000     1.7587640000    -0.6864100000
   30      S       0.4275600000     0.5039420000    -2.8055160000
   31      C       1.5492780000     1.8493570000    -3.0545300000
   32      C       2.0026900000     2.3935290000    -1.8625510000
   33      F       2.8581910000     3.4205490000    -1.8190880000
   34      C       1.8387100000     2.1913480000    -4.4560840000
   35      O       1.3499770000     1.5964810000    -5.4065100000
   36      O       2.7010910000     3.2307050000    -4.5692250000
   37      C       3.0233270000     3.6066050000    -5.9162070000
   38      H       3.7257030000     4.4545340000    -5.8330640000
   39      H       2.1120720000     3.9100350000    -6.4701680000
   40      H       3.4952810000     2.7629960000    -6.4592930000
   41      H       2.1851740000     2.6068460000     1.3064860000
   42      H       0.4577360000    -9.1436230000    -0.7913460000
   43      H       0.1580560000    -9.1494410000     0.9797080000
   44      H       0.1802050000    -1.4431750000    -1.0648300000
 ----------------------------------------------------------------

   11   -2755.3179838833      6.82e-07  Convergence criterion met
 Total energy in the final basis set =    -2755.3179838833
        RIMP2         total energy =     -2760.4129866086 a.u.

                    Orbital Energies (a.u.)
 --------------------------------------------------------------

 Alpha MOs
 -- Occupied --
-92.0117 -92.0063 -91.9701 -91.9573 -26.3463 -20.6160 -20.5867 -20.5848
-20.5625 -11.4110 -11.3869 -11.3226 -11.3117 -11.3081 -11.3037 -11.2996
-11.2897 -11.2879 -11.2873 -11.2827 -11.2826 -11.2801 -11.2752 -11.2718
-11.2706 -11.2567 -11.2561 -11.2486 -11.2345  -9.0109  -9.0062  -8.9726
 -8.9599  -6.6917  -6.6909  -6.6906  -6.6872  -6.6864  -6.6854  -6.6537
 -6.6529  -6.6516  -6.6412  -6.6403  -6.6392  -1.6633  -1.4685  -1.4090
 -1.4077  -1.3712  -1.2350  -1.2004  -1.1722  -1.1393  -1.0997  -1.0490
 -1.0439  -1.0256  -1.0013  -0.9952  -0.9645  -0.9576  -0.9482  -0.9417
 -0.8912  -0.8722  -0.8618  -0.8165  -0.7958  -0.7897  -0.7828  -0.7669
 -0.7597  -0.7341  -0.7280  -0.7123  -0.7013  -0.6935  -0.6860  -0.6791
 -0.6751  -0.6663  -0.6544  -0.6475  -0.6355  -0.6290  -0.6190  -0.6146
 -0.6102  -0.6007  -0.5931  -0.5749  -0.5720  -0.5641  -0.5562  -0.5544
 -0.5510  -0.5321  -0.5261  -0.5219  -0.5123  -0.5103  -0.5062  -0.5000
 -0.4852  -0.4832  -0.4758  -0.4746  -0.4698  -0.4672  -0.4577  -0.4444
 -0.4206  -0.3986  -0.3827  -0.3688  -0.3504  -0.3082  -0.2872  -0.2186

          Ground-State Mulliken Net Atomic Charges

     Atom                 Charge (a.u.)
  ----------------------------------------
      1 C                    -0.069887
      2 C                    -0.266278
      3 S                    -0.137220
      4 C                    -0.042004
      5 H                     0.192699
      6 C                    -0.052550
      7 C                     0.223759
      8 C                     0.221000
      9 C                    -0.075333
     10 C                    -0.046758
     11 O                    -0.336205
     12 O                    -0.343891
     13 C                    -0.082526
     14 H                     0.119442
     15 H                     0.092146
     16 H                     0.092569
     17 C                    -0.086011
     18 H                     0.122184
     19 H                     0.091837
     20 H                     0.090043
     21 C                    -0.263033
     22 S                    -0.089140
     23 C                     0.047153
     24 H                     0.208077
     25 C                    -0.100142
     26 S                     0.091474
     27 C                    -0.156897
     28 C                     0.010761
     29 C                    -0.090840
     30 S                     0.025422
     31 C                    -0.156325
     32 C                     0.394977
     33 F                    -0.204009
     34 C                     0.447069
     35 O                    -0.461266
     36 O                    -0.301212
     37 C                    -0.058250
     38 H                     0.121603
     39 H                     0.095375
     40 H                     0.095381
     41 H                     0.218715
     42 H                     0.116656
     43 H                     0.114106
     44 H                     0.187329
  ----------------------------------------
  Sum of atomic charges =     0.000000

                    Cartesian Multipole Moments
 -----------------------------------------------------------------
    Charge (ESU x 10^10)
                 0.0000
    Dipole Moment (Debye)
         X       2.3911      Y       3.4198      Z       2.1609
       Tot       4.6991
    Quadrupole Moments (Debye-Ang)
        XX    -181.1785     XY      11.6309     YY    -184.3995
        XZ       2.9164     YZ      -5.4649     ZZ    -200.9465

 Total job time:  349.31s(wall), 10730.68s(cpu)
        *  Thank you very much for using Q-Chem.  Have a nice day.  *
