 Q-Chem 5.4, Q-Chem, Inc., Pleasanton, CA (2021)
 Q-Chem 5.4.0 for Intel X86 EM64T Linux

User input:
--------------------------------------------------------------
$molecule
0 1
C	0.270358	-8.517702	-0.172904
C	-0.548363	-7.641575	0.524688
S	1.445750	-7.638634	-1.180599
C	-0.259951	-6.264785	0.282727
H	-1.347559	-7.966081	1.203014
C	0.833868	-6.072714	-0.632972
C	1.248701	-4.787049	-1.013580
C	-0.965673	-5.162801	0.845068
C	-0.553357	-3.874817	0.460946
C	0.543470	-3.683952	-0.453541
O	-1.958276	-5.499772	1.714812
O	2.245053	-4.459055	-1.888193
C	3.360989	-5.329063	-2.033848
H	4.130667	-4.755694	-2.584788
H	3.112380	-6.238095	-2.624118
H	3.770895	-5.637262	-1.047748
C	-2.994272	-4.572261	2.013896
H	-3.763700	-5.139743	2.570853
H	-3.448815	-4.153131	1.090625
H	-2.636780	-3.739531	2.657717
C	0.827659	-2.306654	-0.694943
S	-1.174750	-2.306501	0.999993
C	-0.000000	-1.435185	-0.000000
H	1.627541	-1.978138	-1.370385
C	0.000000	0.000000	0.000000
S	0.079327	0.901280	1.507541
C	0.215617	2.467903	0.718873
C	0.079577	0.900940	-1.067872
C	0.198433	2.285998	-0.686410
S	0.061187	0.658044	-2.805516
C	0.208347	2.403534	-3.054530
C	0.267636	3.109360	-1.862551
F	0.379347	4.441341	-1.819088
C	0.249278	2.849688	-4.456084
O	0.190132	2.082076	-5.406510
O	0.359548	4.195721	-4.569225
C	0.407901	4.688467	-5.916207
H	0.496901	5.785916	-5.833064
H	-0.512596	4.414348	-6.470168
H	1.278377	4.268124	-6.459293
H	0.294764	3.388767	1.306486
H	-0.311979	-9.143623	-0.859314
H	0.852097	-9.149441	0.508666
H	-0.699874	-1.443175	-0.822504
$end

$rem
JOBTYPE		SP
EXCHANGE	HF
CORRELATION	pRIMP2
BASIS		cc-pvtz
METHOD		rimp2
AUX_BASIS	rimp2-cc-pvtz
SOLVENT_METHOD	PCM
PURECART	11111
SYMMETRY	false
MEM_TOTAL	110000
SCF_CONVERGENCE = 6
THRESH=10
GUI = 2
$end

$solvent
dielectric 4.90
$end
--------------------------------------------------------------

             Standard Nuclear Orientation (Angstroms)
    I     Atom           X                Y                Z
 ----------------------------------------------------------------
    1      C       0.2703580000    -8.5177020000    -0.1729040000
    2      C      -0.5483630000    -7.6415750000     0.5246880000
    3      S       1.4457500000    -7.6386340000    -1.1805990000
    4      C      -0.2599510000    -6.2647850000     0.2827270000
    5      H      -1.3475590000    -7.9660810000     1.2030140000
    6      C       0.8338680000    -6.0727140000    -0.6329720000
    7      C       1.2487010000    -4.7870490000    -1.0135800000
    8      C      -0.9656730000    -5.1628010000     0.8450680000
    9      C      -0.5533570000    -3.8748170000     0.4609460000
   10      C       0.5434700000    -3.6839520000    -0.4535410000
   11      O      -1.9582760000    -5.4997720000     1.7148120000
   12      O       2.2450530000    -4.4590550000    -1.8881930000
   13      C       3.3609890000    -5.3290630000    -2.0338480000
   14      H       4.1306670000    -4.7556940000    -2.5847880000
   15      H       3.1123800000    -6.2380950000    -2.6241180000
   16      H       3.7708950000    -5.6372620000    -1.0477480000
   17      C      -2.9942720000    -4.5722610000     2.0138960000
   18      H      -3.7637000000    -5.1397430000     2.5708530000
   19      H      -3.4488150000    -4.1531310000     1.0906250000
   20      H      -2.6367800000    -3.7395310000     2.6577170000
   21      C       0.8276590000    -2.3066540000    -0.6949430000
   22      S      -1.1747500000    -2.3065010000     0.9999930000
   23      C       0.0000000000    -1.4351850000     0.0000000000
   24      H       1.6275410000    -1.9781380000    -1.3703850000
   25      C       0.0000000000     0.0000000000     0.0000000000
   26      S       0.0793270000     0.9012800000     1.5075410000
   27      C       0.2156170000     2.4679030000     0.7188730000
   28      C       0.0795770000     0.9009400000    -1.0678720000
   29      C       0.1984330000     2.2859980000    -0.6864100000
   30      S       0.0611870000     0.6580440000    -2.8055160000
   31      C       0.2083470000     2.4035340000    -3.0545300000
   32      C       0.2676360000     3.1093600000    -1.8625510000
   33      F       0.3793470000     4.4413410000    -1.8190880000
   34      C       0.2492780000     2.8496880000    -4.4560840000
   35      O       0.1901320000     2.0820760000    -5.4065100000
   36      O       0.3595480000     4.1957210000    -4.5692250000
   37      C       0.4079010000     4.6884670000    -5.9162070000
   38      H       0.4969010000     5.7859160000    -5.8330640000
   39      H      -0.5125960000     4.4143480000    -6.4701680000
   40      H       1.2783770000     4.2681240000    -6.4592930000
   41      H       0.2947640000     3.3887670000     1.3064860000
   42      H      -0.3119790000    -9.1436230000    -0.8593140000
   43      H       0.8520970000    -9.1494410000     0.5086660000
   44      H      -0.6998740000    -1.4431750000    -0.8225040000
 ----------------------------------------------------------------

   11   -2755.3463610485      7.44e-07  Convergence criterion met
 Total energy in the final basis set =    -2755.3463610485
        RIMP2         total energy =     -2760.4352868572 a.u.

                    Orbital Energies (a.u.)
 --------------------------------------------------------------

 Alpha MOs
 -- Occupied --
-92.0132 -91.9990 -91.9803 -91.9584 -26.3439 -20.6153 -20.5877 -20.5872
-20.5618 -11.4099 -11.3832 -11.3093 -11.3085 -11.3064 -11.3062 -11.2990
-11.2987 -11.2891 -11.2853 -11.2851 -11.2840 -11.2827 -11.2822 -11.2732
-11.2729 -11.2586 -11.2586 -11.2499 -11.2376  -9.0119  -8.9992  -8.9824
 -8.9610  -6.6927  -6.6921  -6.6916  -6.6802  -6.6795  -6.6783  -6.6635
 -6.6626  -6.6613  -6.6422  -6.6413  -6.6403  -1.6609  -1.4677  -1.4111
 -1.4090  -1.3704  -1.2297  -1.2031  -1.1740  -1.1371  -1.1012  -1.0467
 -1.0459  -1.0233  -1.0041  -0.9980  -0.9623  -0.9595  -0.9489  -0.9412
 -0.8943  -0.8712  -0.8647  -0.8106  -0.7991  -0.7900  -0.7847  -0.7682
 -0.7582  -0.7363  -0.7258  -0.7094  -0.7004  -0.6955  -0.6852  -0.6805
 -0.6743  -0.6648  -0.6562  -0.6488  -0.6366  -0.6307  -0.6203  -0.6151
 -0.6123  -0.5988  -0.5928  -0.5775  -0.5713  -0.5656  -0.5588  -0.5530
 -0.5473  -0.5337  -0.5315  -0.5268  -0.5131  -0.5085  -0.5078  -0.5023
 -0.4853  -0.4818  -0.4763  -0.4744  -0.4692  -0.4684  -0.4621  -0.4471
 -0.4278  -0.3976  -0.3859  -0.3704  -0.3506  -0.3003  -0.2895  -0.2199

          Ground-State Mulliken Net Atomic Charges

     Atom                 Charge (a.u.)
  ----------------------------------------
      1 C                    -0.070347
      2 C                    -0.258016
      3 S                    -0.134519
      4 C                    -0.045932
      5 H                     0.193589
      6 C                    -0.052461
      7 C                     0.222483
      8 C                     0.229704
      9 C                    -0.079136
     10 C                    -0.045011
     11 O                    -0.334690
     12 O                    -0.342833
     13 C                    -0.082946
     14 H                     0.120434
     15 H                     0.092304
     16 H                     0.092559
     17 C                    -0.086933
     18 H                     0.123721
     19 H                     0.092968
     20 H                     0.090128
     21 C                    -0.277339
     22 S                    -0.077528
     23 C                     0.085225
     24 H                     0.210675
     25 C                    -0.066713
     26 S                     0.089133
     27 C                    -0.194025
     28 C                     0.000571
     29 C                    -0.111033
     30 S                     0.002128
     31 C                    -0.155288
     32 C                     0.396864
     33 F                    -0.206392
     34 C                     0.445288
     35 O                    -0.460694
     36 O                    -0.300574
     37 C                    -0.058640
     38 H                     0.121534
     39 H                     0.095269
     40 H                     0.095149
     41 H                     0.216983
     42 H                     0.117661
     43 H                     0.115166
     44 H                     0.191515
  ----------------------------------------
  Sum of atomic charges =     0.000000

                    Cartesian Multipole Moments
 -----------------------------------------------------------------
    Charge (ESU x 10^10)
                -0.0000
    Dipole Moment (Debye)
         X      -0.2792      Y       2.4640      Z       2.6236
       Tot       3.6101
    Quadrupole Moments (Debye-Ang)
        XX    -185.5215     XY       4.4540     YY    -173.6415
        XZ      -6.9440     YZ     -10.2817     ZZ    -204.0795

 Total job time:  319.83s(wall), 10358.36s(cpu)
        *  Thank you very much for using Q-Chem.  Have a nice day.  *
