 Q-Chem 5.4, Q-Chem, Inc., Pleasanton, CA (2021)
 Q-Chem 5.4.0 for Intel X86 EM64T Linux

User input:
--------------------------------------------------------------
$molecule
0 1
C	-0.306235	-8.517702	-0.095966
C	0.754415	-7.641575	0.082807
S	-1.833702	-7.638634	-0.348635
C	0.383675	-6.264785	0.017401
H	1.787757	-7.966081	0.259008
C	-1.020885	-6.072714	-0.231913
C	-1.579097	-4.787049	-0.305044
C	1.268082	-5.162801	0.196549
C	0.708796	-3.874817	0.127606
C	-0.696769	-3.683952	-0.124792
O	2.572378	-5.499772	0.397867
O	-2.889532	-4.459055	-0.506103
C	-3.718420	-5.329063	-1.267335
H	-4.635204	-4.755694	-1.502804
H	-4.010790	-6.238095	-0.697471
H	-3.226506	-5.637262	-2.215194
C	3.467415	-4.572261	0.999238
H	4.388648	-5.139743	1.230649
H	3.052323	-4.153131	1.940905
H	3.730819	-3.739531	0.311543
C	-1.064366	-2.306654	-0.187323
S	1.521154	-2.306501	0.257128
C	-0.000000	-1.435185	-0.000000
H	-2.095939	-1.978138	-0.365903
C	0.000000	0.000000	0.000000
S	0.382799	0.819795	1.507541
C	1.046687	2.245325	0.718873
C	0.382918	0.819389	-1.067872
C	0.968323	2.080267	-0.686410
S	0.282561	0.597432	-2.805516
C	1.017839	2.187324	-3.054530
C	1.314960	2.830306	-1.862551
F	1.875498	4.043751	-1.819088
C	1.208895	2.592573	-4.456084
O	0.890778	1.891482	-5.406510
O	1.772886	3.819715	-4.569225
C	1.986852	4.266207	-5.916207
H	2.445834	5.267032	-5.833064
H	1.028114	4.323448	-6.470168
H	2.661066	3.573494	-6.459293
H	1.436015	3.083584	1.306486
H	-0.457736	-9.143623	0.791346
H	-0.158056	-9.149441	-0.979708
H	-0.180205	-1.443175	1.064830
$end

$rem
JOBTYPE		SP
EXCHANGE	HF
CORRELATION	pRIMP2
BASIS		cc-pvtz
METHOD		rimp2
AUX_BASIS	rimp2-cc-pvtz
SOLVENT_METHOD	PCM
PURECART	11111
SYMMETRY	false
MEM_TOTAL	110000
SCF_CONVERGENCE = 6
THRESH=10
GUI = 2
$end

$solvent
dielectric 4.90
$end
--------------------------------------------------------------

             Standard Nuclear Orientation (Angstroms)
    I     Atom           X                Y                Z
 ----------------------------------------------------------------
    1      C      -0.3062350000    -8.5177020000    -0.0959660000
    2      C       0.7544150000    -7.6415750000     0.0828070000
    3      S      -1.8337020000    -7.6386340000    -0.3486350000
    4      C       0.3836750000    -6.2647850000     0.0174010000
    5      H       1.7877570000    -7.9660810000     0.2590080000
    6      C      -1.0208850000    -6.0727140000    -0.2319130000
    7      C      -1.5790970000    -4.7870490000    -0.3050440000
    8      C       1.2680820000    -5.1628010000     0.1965490000
    9      C       0.7087960000    -3.8748170000     0.1276060000
   10      C      -0.6967690000    -3.6839520000    -0.1247920000
   11      O       2.5723780000    -5.4997720000     0.3978670000
   12      O      -2.8895320000    -4.4590550000    -0.5061030000
   13      C      -3.7184200000    -5.3290630000    -1.2673350000
   14      H      -4.6352040000    -4.7556940000    -1.5028040000
   15      H      -4.0107900000    -6.2380950000    -0.6974710000
   16      H      -3.2265060000    -5.6372620000    -2.2151940000
   17      C       3.4674150000    -4.5722610000     0.9992380000
   18      H       4.3886480000    -5.1397430000     1.2306490000
   19      H       3.0523230000    -4.1531310000     1.9409050000
   20      H       3.7308190000    -3.7395310000     0.3115430000
   21      C      -1.0643660000    -2.3066540000    -0.1873230000
   22      S       1.5211540000    -2.3065010000     0.2571280000
   23      C       0.0000000000    -1.4351850000     0.0000000000
   24      H      -2.0959390000    -1.9781380000    -0.3659030000
   25      C       0.0000000000     0.0000000000     0.0000000000
   26      S       0.3827990000     0.8197950000     1.5075410000
   27      C       1.0466870000     2.2453250000     0.7188730000
   28      C       0.3829180000     0.8193890000    -1.0678720000
   29      C       0.9683230000     2.0802670000    -0.6864100000
   30      S       0.2825610000     0.5974320000    -2.8055160000
   31      C       1.0178390000     2.1873240000    -3.0545300000
   32      C       1.3149600000     2.8303060000    -1.8625510000
   33      F       1.8754980000     4.0437510000    -1.8190880000
   34      C       1.2088950000     2.5925730000    -4.4560840000
   35      O       0.8907780000     1.8914820000    -5.4065100000
   36      O       1.7728860000     3.8197150000    -4.5692250000
   37      C       1.9868520000     4.2662070000    -5.9162070000
   38      H       2.4458340000     5.2670320000    -5.8330640000
   39      H       1.0281140000     4.3234480000    -6.4701680000
   40      H       2.6610660000     3.5734940000    -6.4592930000
   41      H       1.4360150000     3.0835840000     1.3064860000
   42      H      -0.4577360000    -9.1436230000     0.7913460000
   43      H      -0.1580560000    -9.1494410000    -0.9797080000
   44      H      -0.1802050000    -1.4431750000     1.0648300000
 ----------------------------------------------------------------

   11   -2755.3345892198      7.35e-07  Convergence criterion met
 Total energy in the final basis set =    -2755.3345892198
        RIMP2         total energy =     -2760.4240228418 a.u.

                    Orbital Energies (a.u.)
 --------------------------------------------------------------

 Alpha MOs
 -- Occupied --
-92.0172 -92.0004 -91.9756 -91.9570 -26.3441 -20.6151 -20.5866 -20.5859
-20.5616 -11.4098 -11.3835 -11.3163 -11.3083 -11.3054 -11.3024 -11.2982
-11.2932 -11.2890 -11.2857 -11.2839 -11.2823 -11.2820 -11.2774 -11.2711
-11.2711 -11.2571 -11.2549 -11.2485 -11.2345  -9.0159  -9.0003  -8.9779
 -8.9596  -6.6966  -6.6960  -6.6955  -6.6813  -6.6806  -6.6795  -6.6590
 -6.6581  -6.6569  -6.6408  -6.6399  -6.6389  -1.6612  -1.4676  -1.4094
 -1.4082  -1.3703  -1.2300  -1.2018  -1.1725  -1.1383  -1.0986  -1.0457
 -1.0441  -1.0253  -1.0029  -0.9956  -0.9634  -0.9587  -0.9476  -0.9402
 -0.8924  -0.8693  -0.8649  -0.8147  -0.7979  -0.7884  -0.7839  -0.7668
 -0.7569  -0.7375  -0.7260  -0.7172  -0.6968  -0.6864  -0.6847  -0.6790
 -0.6742  -0.6602  -0.6554  -0.6479  -0.6332  -0.6299  -0.6189  -0.6144
 -0.6113  -0.5997  -0.5913  -0.5748  -0.5721  -0.5633  -0.5581  -0.5539
 -0.5449  -0.5330  -0.5312  -0.5250  -0.5124  -0.5078  -0.5067  -0.5005
 -0.4852  -0.4823  -0.4756  -0.4743  -0.4709  -0.4686  -0.4601  -0.4454
 -0.4220  -0.3994  -0.3845  -0.3691  -0.3504  -0.3033  -0.2883  -0.2195

          Ground-State Mulliken Net Atomic Charges

     Atom                 Charge (a.u.)
  ----------------------------------------
      1 C                    -0.069870
      2 C                    -0.266539
      3 S                    -0.138160
      4 C                    -0.041885
      5 H                     0.192505
      6 C                    -0.054006
      7 C                     0.224296
      8 C                     0.221386
      9 C                    -0.074141
     10 C                    -0.047701
     11 O                    -0.335275
     12 O                    -0.343370
     13 C                    -0.082515
     14 H                     0.119845
     15 H                     0.091778
     16 H                     0.093088
     17 C                    -0.086539
     18 H                     0.122915
     19 H                     0.091291
     20 H                     0.090450
     21 C                    -0.257953
     22 S                    -0.070975
     23 C                     0.033969
     24 H                     0.205745
     25 C                    -0.072447
     26 S                     0.094085
     27 C                    -0.178410
     28 C                     0.009196
     29 C                    -0.094005
     30 S                     0.017118
     31 C                    -0.156192
     32 C                     0.397253
     33 F                    -0.206301
     34 C                     0.445028
     35 O                    -0.460774
     36 O                    -0.300971
     37 C                    -0.058416
     38 H                     0.121372
     39 H                     0.095170
     40 H                     0.095273
     41 H                     0.219452
     42 H                     0.116264
     43 H                     0.114169
     44 H                     0.184801
  ----------------------------------------
  Sum of atomic charges =     0.000000

                    Cartesian Multipole Moments
 -----------------------------------------------------------------
    Charge (ESU x 10^10)
                -0.0000
    Dipole Moment (Debye)
         X       1.3191      Y       3.5084      Z       3.4164
       Tot       5.0716
    Quadrupole Moments (Debye-Ang)
        XX    -184.9982     XY       2.8247     YY    -181.1502
        XZ       4.7215     YZ      -7.2386     ZZ    -201.4089

 Total job time:  325.69s(wall), 10673.97s(cpu)
        *  Thank you very much for using Q-Chem.  Have a nice day.  *
