 Q-Chem 5.4, Q-Chem, Inc., Pleasanton, CA (2021)
 Q-Chem 5.4.0 for Intel X86 EM64T Linux

User input:
--------------------------------------------------------------
$molecule
0 1
C	-0.254945	-8.517702	-0.194917
C	0.680596	-7.641575	0.335839
S	-1.603876	-7.638634	-0.954772
C	0.354585	-6.264785	0.147576
H	1.591356	-7.966081	0.854836
C	-0.879999	-6.072714	-0.567090
C	-1.379534	-4.787049	-0.826731
C	1.124384	-5.162801	0.618405
C	0.622407	-3.874817	0.362333
C	-0.612067	-3.683952	-0.355575
O	2.281166	-5.499772	1.253677
O	-2.542174	-4.459055	-1.463859
C	-3.060718	-5.329063	-2.462679
H	-3.841678	-4.755694	-2.997507
H	-3.530361	-6.238095	-2.027179
H	-2.274283	-5.637262	-3.185132
C	2.916545	-4.572261	2.124902
H	3.703073	-5.139743	2.657438
H	2.204417	-4.153131	2.867810
H	3.399269	-3.739531	1.568770
C	-0.936109	-2.306654	-0.540061
S	1.341474	-2.306501	0.761887
C	-0.000000	-1.435185	-0.000000
H	-1.844392	-1.978138	-1.060690
C	0.000000	0.000000	0.000000
S	0.783786	0.451972	1.507541
C	2.145261	1.238908	0.718873
C	0.783650	0.451572	-1.067872
C	1.986396	1.148648	-0.686410
S	0.574133	0.327317	-2.805516
C	2.088363	1.207943	-3.054530
C	2.700548	1.564221	-1.862551
F	3.855718	2.236706	-1.819088
C	2.477307	1.430318	-4.456084
O	1.814592	1.038482	-5.406510
O	3.643162	2.112042	-4.569225
C	4.074530	2.355061	-5.916207
H	5.024556	2.911627	-5.833064
H	3.322010	2.951860	-6.470168
H	4.229490	1.400910	-6.459293
H	2.944986	1.702260	1.306486
H	-0.700788	-9.143623	0.587067
H	0.186556	-9.149441	-0.974683
H	-0.533530	-1.443175	0.938979
$end

$rem
JOBTYPE		SP
EXCHANGE	HF
CORRELATION	pRIMP2
BASIS		cc-pvtz
METHOD		rimp2
AUX_BASIS	rimp2-cc-pvtz
SOLVENT_METHOD	PCM
PURECART	11111
SYMMETRY	false
MEM_TOTAL	110000
SCF_CONVERGENCE = 6
THRESH=10
GUI = 2
$end

$solvent
dielectric 4.90
$end
--------------------------------------------------------------

             Standard Nuclear Orientation (Angstroms)
    I     Atom           X                Y                Z
 ----------------------------------------------------------------
    1      C      -0.2549450000    -8.5177020000    -0.1949170000
    2      C       0.6805960000    -7.6415750000     0.3358390000
    3      S      -1.6038760000    -7.6386340000    -0.9547720000
    4      C       0.3545850000    -6.2647850000     0.1475760000
    5      H       1.5913560000    -7.9660810000     0.8548360000
    6      C      -0.8799990000    -6.0727140000    -0.5670900000
    7      C      -1.3795340000    -4.7870490000    -0.8267310000
    8      C       1.1243840000    -5.1628010000     0.6184050000
    9      C       0.6224070000    -3.8748170000     0.3623330000
   10      C      -0.6120670000    -3.6839520000    -0.3555750000
   11      O       2.2811660000    -5.4997720000     1.2536770000
   12      O      -2.5421740000    -4.4590550000    -1.4638590000
   13      C      -3.0607180000    -5.3290630000    -2.4626790000
   14      H      -3.8416780000    -4.7556940000    -2.9975070000
   15      H      -3.5303610000    -6.2380950000    -2.0271790000
   16      H      -2.2742830000    -5.6372620000    -3.1851320000
   17      C       2.9165450000    -4.5722610000     2.1249020000
   18      H       3.7030730000    -5.1397430000     2.6574380000
   19      H       2.2044170000    -4.1531310000     2.8678100000
   20      H       3.3992690000    -3.7395310000     1.5687700000
   21      C      -0.9361090000    -2.3066540000    -0.5400610000
   22      S       1.3414740000    -2.3065010000     0.7618870000
   23      C       0.0000000000    -1.4351850000     0.0000000000
   24      H      -1.8443920000    -1.9781380000    -1.0606900000
   25      C       0.0000000000     0.0000000000     0.0000000000
   26      S       0.7837860000     0.4519720000     1.5075410000
   27      C       2.1452610000     1.2389080000     0.7188730000
   28      C       0.7836500000     0.4515720000    -1.0678720000
   29      C       1.9863960000     1.1486480000    -0.6864100000
   30      S       0.5741330000     0.3273170000    -2.8055160000
   31      C       2.0883630000     1.2079430000    -3.0545300000
   32      C       2.7005480000     1.5642210000    -1.8625510000
   33      F       3.8557180000     2.2367060000    -1.8190880000
   34      C       2.4773070000     1.4303180000    -4.4560840000
   35      O       1.8145920000     1.0384820000    -5.4065100000
   36      O       3.6431620000     2.1120420000    -4.5692250000
   37      C       4.0745300000     2.3550610000    -5.9162070000
   38      H       5.0245560000     2.9116270000    -5.8330640000
   39      H       3.3220100000     2.9518600000    -6.4701680000
   40      H       4.2294900000     1.4009100000    -6.4592930000
   41      H       2.9449860000     1.7022600000     1.3064860000
   42      H      -0.7007880000    -9.1436230000     0.5870670000
   43      H       0.1865560000    -9.1494410000    -0.9746830000
   44      H      -0.5335300000    -1.4431750000     0.9389790000
 ----------------------------------------------------------------

   11   -2755.2735855573      7.49e-07  Convergence criterion met
 Total energy in the final basis set =    -2755.2735855573
        RIMP2         total energy =     -2760.3761266564 a.u.

                    Orbital Energies (a.u.)
 --------------------------------------------------------------

 Alpha MOs
 -- Occupied --
-92.0146 -92.0113 -91.9688 -91.9545 -26.3470 -20.6160 -20.5852 -20.5832
-20.5624 -11.4112 -11.3881 -11.3387 -11.3194 -11.3065 -11.3005 -11.2994
-11.2897 -11.2886 -11.2827 -11.2811 -11.2781 -11.2722 -11.2689 -11.2675
-11.2652 -11.2546 -11.2497 -11.2460 -11.2289  -9.0146  -9.0109  -8.9718
 -8.9572  -6.6952  -6.6943  -6.6942  -6.6918  -6.6910  -6.6901  -6.6528
 -6.6519  -6.6506  -6.6384  -6.6375  -6.6365  -1.6640  -1.4686  -1.4074
 -1.4061  -1.3713  -1.2416  -1.1993  -1.1709  -1.1419  -1.0965  -1.0497
 -1.0421  -1.0291  -1.0010  -0.9926  -0.9668  -0.9597  -0.9460  -0.9394
 -0.8908  -0.8732  -0.8587  -0.8192  -0.7986  -0.7872  -0.7814  -0.7645
 -0.7582  -0.7378  -0.7286  -0.7180  -0.6960  -0.6890  -0.6859  -0.6778
 -0.6752  -0.6622  -0.6537  -0.6464  -0.6352  -0.6308  -0.6165  -0.6130
 -0.6106  -0.6032  -0.5894  -0.5786  -0.5686  -0.5617  -0.5567  -0.5525
 -0.5340  -0.5329  -0.5301  -0.5242  -0.5137  -0.5086  -0.5054  -0.4987
 -0.4866  -0.4829  -0.4778  -0.4758  -0.4733  -0.4633  -0.4516  -0.4429
 -0.4217  -0.3929  -0.3850  -0.3654  -0.3460  -0.3135  -0.2845  -0.2144

          Ground-State Mulliken Net Atomic Charges

     Atom                 Charge (a.u.)
  ----------------------------------------
      1 C                    -0.069021
      2 C                    -0.282060
      3 S                    -0.143135
      4 C                    -0.040789
      5 H                     0.190242
      6 C                    -0.055026
      7 C                     0.224274
      8 C                     0.217540
      9 C                    -0.081350
     10 C                    -0.050162
     11 O                    -0.336556
     12 O                    -0.343434
     13 C                    -0.082571
     14 H                     0.119399
     15 H                     0.091720
     16 H                     0.092741
     17 C                    -0.086363
     18 H                     0.122354
     19 H                     0.089909
     20 H                     0.088727
     21 C                    -0.286758
     22 S                    -0.093448
     23 C                     0.028631
     24 H                     0.207265
     25 C                    -0.194972
     26 S                     0.107835
     27 C                    -0.114519
     28 C                     0.131106
     29 C                    -0.123591
     30 S                     0.059385
     31 C                    -0.153534
     32 C                     0.395770
     33 F                    -0.203870
     34 C                     0.448507
     35 O                    -0.462096
     36 O                    -0.301318
     37 C                    -0.058134
     38 H                     0.121615
     39 H                     0.095261
     40 H                     0.095565
     41 H                     0.223191
     42 H                     0.114088
     43 H                     0.111865
     44 H                     0.185719
  ----------------------------------------
  Sum of atomic charges =     0.000000

                    Cartesian Multipole Moments
 -----------------------------------------------------------------
    Charge (ESU x 10^10)
                -0.0000
    Dipole Moment (Debye)
         X       3.5765      Y       4.1648      Z       3.0055
       Tot       6.2585
    Quadrupole Moments (Debye-Ang)
        XX    -180.5419     XY       5.7971     YY    -199.5977
        XZ       2.7584     YZ      -5.1122     ZZ    -193.2454

 Total job time:  329.22s(wall), 10842.62s(cpu)
        *  Thank you very much for using Q-Chem.  Have a nice day.  *
