 Q-Chem 5.4, Q-Chem, Inc., Pleasanton, CA (2021)
 Q-Chem 5.4.0 for Intel X86 EM64T Linux

User input:
--------------------------------------------------------------
$molecule
0 1
C	-0.147685	-8.517702	0.284919
C	0.212552	-7.641575	-0.728574
S	-0.661757	-7.638634	1.745304
C	0.083761	-6.264785	-0.374824
H	0.565513	-7.966081	-1.715621
C	-0.405665	-6.072714	0.965104
C	-0.574617	-4.787049	1.502136
C	0.413763	-5.162801	-1.214687
C	0.248748	-3.874817	-0.675870
C	-0.243888	-3.683952	0.664513
O	0.838511	-5.499772	-2.464209
O	-1.000176	-4.459055	2.757750
C	-1.893778	-5.329063	3.441858
H	-2.284868	-4.755694	4.303826
H	-1.383341	-6.238095	3.828743
H	-2.741817	-5.637262	2.792824
C	1.586168	-4.572261	-3.241222
H	1.974033	-5.139743	-4.108274
H	2.441448	-4.153131	-2.668916
H	0.954660	-3.739531	-3.620041
C	-0.369302	-2.306654	1.015668
S	0.517367	-2.306501	-1.453394
C	-0.000000	-1.435185	-0.000000
H	-0.724300	-1.978138	2.000559
C	0.000000	0.000000	0.000000
S	0.079327	0.901280	1.507541
C	0.215617	2.467903	0.718873
C	0.079577	0.900940	-1.067872
C	0.198433	2.285998	-0.686410
S	0.061187	0.658044	-2.805516
C	0.208347	2.403534	-3.054530
C	0.267636	3.109360	-1.862551
F	0.379347	4.441341	-1.819088
C	0.249278	2.849688	-4.456084
O	0.190132	2.082076	-5.406510
O	0.359548	4.195721	-4.569225
C	0.407901	4.688467	-5.916207
H	0.496901	5.785916	-5.833064
H	-0.512596	4.414348	-6.470168
H	1.278377	4.268124	-6.459293
H	0.294764	3.388767	1.306486
H	0.699838	-9.143623	0.588198
H	-0.992270	-9.149441	-0.014470
H	1.017360	-1.443175	0.362373
$end

$rem
JOBTYPE		SP
EXCHANGE	HF
CORRELATION	pRIMP2
BASIS		cc-pvtz
METHOD		rimp2
AUX_BASIS	rimp2-cc-pvtz
SOLVENT_METHOD	PCM
PURECART	11111
SYMMETRY	false
MEM_TOTAL	110000
SCF_CONVERGENCE = 6
THRESH=10
GUI = 2
$end

$solvent
dielectric 4.90
$end
--------------------------------------------------------------

             Standard Nuclear Orientation (Angstroms)
    I     Atom           X                Y                Z
 ----------------------------------------------------------------
    1      C      -0.1476850000    -8.5177020000     0.2849190000
    2      C       0.2125520000    -7.6415750000    -0.7285740000
    3      S      -0.6617570000    -7.6386340000     1.7453040000
    4      C       0.0837610000    -6.2647850000    -0.3748240000
    5      H       0.5655130000    -7.9660810000    -1.7156210000
    6      C      -0.4056650000    -6.0727140000     0.9651040000
    7      C      -0.5746170000    -4.7870490000     1.5021360000
    8      C       0.4137630000    -5.1628010000    -1.2146870000
    9      C       0.2487480000    -3.8748170000    -0.6758700000
   10      C      -0.2438880000    -3.6839520000     0.6645130000
   11      O       0.8385110000    -5.4997720000    -2.4642090000
   12      O      -1.0001760000    -4.4590550000     2.7577500000
   13      C      -1.8937780000    -5.3290630000     3.4418580000
   14      H      -2.2848680000    -4.7556940000     4.3038260000
   15      H      -1.3833410000    -6.2380950000     3.8287430000
   16      H      -2.7418170000    -5.6372620000     2.7928240000
   17      C       1.5861680000    -4.5722610000    -3.2412220000
   18      H       1.9740330000    -5.1397430000    -4.1082740000
   19      H       2.4414480000    -4.1531310000    -2.6689160000
   20      H       0.9546600000    -3.7395310000    -3.6200410000
   21      C      -0.3693020000    -2.3066540000     1.0156680000
   22      S       0.5173670000    -2.3065010000    -1.4533940000
   23      C       0.0000000000    -1.4351850000     0.0000000000
   24      H      -0.7243000000    -1.9781380000     2.0005590000
   25      C       0.0000000000     0.0000000000     0.0000000000
   26      S       0.0793270000     0.9012800000     1.5075410000
   27      C       0.2156170000     2.4679030000     0.7188730000
   28      C       0.0795770000     0.9009400000    -1.0678720000
   29      C       0.1984330000     2.2859980000    -0.6864100000
   30      S       0.0611870000     0.6580440000    -2.8055160000
   31      C       0.2083470000     2.4035340000    -3.0545300000
   32      C       0.2676360000     3.1093600000    -1.8625510000
   33      F       0.3793470000     4.4413410000    -1.8190880000
   34      C       0.2492780000     2.8496880000    -4.4560840000
   35      O       0.1901320000     2.0820760000    -5.4065100000
   36      O       0.3595480000     4.1957210000    -4.5692250000
   37      C       0.4079010000     4.6884670000    -5.9162070000
   38      H       0.4969010000     5.7859160000    -5.8330640000
   39      H      -0.5125960000     4.4143480000    -6.4701680000
   40      H       1.2783770000     4.2681240000    -6.4592930000
   41      H       0.2947640000     3.3887670000     1.3064860000
   42      H       0.6998380000    -9.1436230000     0.5881980000
   43      H      -0.9922700000    -9.1494410000    -0.0144700000
   44      H       1.0173600000    -1.4431750000     0.3623730000
 ----------------------------------------------------------------

   11   -2755.3435741078      8.61e-07  Convergence criterion met
 Total energy in the final basis set =    -2755.3435741078
        RIMP2         total energy =     -2760.4333899001 a.u.

                    Orbital Energies (a.u.)
 --------------------------------------------------------------

 Alpha MOs
 -- Occupied --
-92.0136 -91.9935 -91.9810 -91.9600 -26.3418 -20.6145 -20.5886 -20.5883
-20.5610 -11.4089 -11.3802 -11.3113 -11.3108 -11.3102 -11.3010 -11.2970
-11.2914 -11.2886 -11.2850 -11.2849 -11.2844 -11.2840 -11.2837 -11.2755
-11.2731 -11.2617 -11.2598 -11.2515 -11.2408  -9.0125  -8.9938  -8.9832
 -8.9626  -6.6933  -6.6928  -6.6922  -6.6749  -6.6741  -6.6729  -6.6644
 -6.6635  -6.6622  -6.6438  -6.6429  -6.6419  -1.6589  -1.4669  -1.4119
 -1.4101  -1.3696  -1.2298  -1.2029  -1.1757  -1.1370  -1.1013  -1.0487
 -1.0437  -1.0239  -1.0050  -0.9984  -0.9634  -0.9571  -0.9497  -0.9418
 -0.8951  -0.8691  -0.8657  -0.8149  -0.7932  -0.7902  -0.7851  -0.7701
 -0.7562  -0.7379  -0.7239  -0.7128  -0.6973  -0.6909  -0.6843  -0.6813
 -0.6735  -0.6633  -0.6568  -0.6496  -0.6387  -0.6313  -0.6217  -0.6161
 -0.6112  -0.5993  -0.5933  -0.5767  -0.5714  -0.5660  -0.5600  -0.5574
 -0.5500  -0.5331  -0.5312  -0.5268  -0.5152  -0.5118  -0.5084  -0.5016
 -0.4849  -0.4777  -0.4770  -0.4738  -0.4698  -0.4670  -0.4606  -0.4483
 -0.4318  -0.3968  -0.3851  -0.3721  -0.3509  -0.2990  -0.2875  -0.2190

          Ground-State Mulliken Net Atomic Charges

     Atom                 Charge (a.u.)
  ----------------------------------------
      1 C                    -0.070637
      2 C                    -0.248802
      3 S                    -0.132054
      4 C                    -0.052156
      5 H                     0.194982
      6 C                    -0.049620
      7 C                     0.220778
      8 C                     0.234994
      9 C                    -0.071355
     10 C                    -0.012611
     11 O                    -0.333890
     12 O                    -0.343835
     13 C                    -0.082865
     14 H                     0.120175
     15 H                     0.092237
     16 H                     0.093335
     17 C                    -0.089951
     18 H                     0.124976
     19 H                     0.093168
     20 H                     0.092549
     21 C                    -0.350459
     22 S                    -0.107705
     23 C                     0.193886
     24 H                     0.196324
     25 C                    -0.043257
     26 S                     0.075498
     27 C                    -0.213593
     28 C                    -0.037902
     29 C                    -0.114838
     30 S                    -0.008366
     31 C                    -0.163058
     32 C                     0.409531
     33 F                    -0.208612
     34 C                     0.441598
     35 O                    -0.460280
     36 O                    -0.300432
     37 C                    -0.058906
     38 H                     0.121364
     39 H                     0.095227
     40 H                     0.094964
     41 H                     0.216686
     42 H                     0.118862
     43 H                     0.116613
     44 H                     0.207434
  ----------------------------------------
  Sum of atomic charges =     0.000000

                    Cartesian Multipole Moments
 -----------------------------------------------------------------
    Charge (ESU x 10^10)
                -0.0000
    Dipole Moment (Debye)
         X       0.9108      Y       1.3286      Z       3.0071
       Tot       3.4114
    Quadrupole Moments (Debye-Ang)
        XX    -194.4281     XY      -0.2046     YY    -169.0630
        XZ      -9.8542     YZ      -3.4156     ZZ    -195.2713

 Total job time:  323.37s(wall), 10508.21s(cpu)
        *  Thank you very much for using Q-Chem.  Have a nice day.  *
