 Q-Chem 5.4, Q-Chem, Inc., Pleasanton, CA (2021)
 Q-Chem 5.4.0 for Intel X86 EM64T Linux

User input:
--------------------------------------------------------------
$molecule
0 1
C	-0.070009	-8.517702	-0.313191
C	0.305494	-7.641575	0.694746
S	-0.614924	-7.638634	-1.762350
C	0.176768	-6.264785	0.340973
H	0.669571	-7.966081	1.677747
C	-0.309600	-6.072714	-1.000069
C	-0.525372	-4.787049	-1.520060
C	0.463825	-5.162801	1.196466
C	0.243888	-3.874817	0.677639
C	-0.240312	-3.683952	-0.665815
O	0.941626	-5.499772	2.426678
O	-1.006468	-4.459055	-2.755460
C	-0.761666	-5.329063	-3.853913
H	-1.016135	-4.755694	-4.765607
H	-1.401368	-6.238095	-3.822182
H	0.305161	-5.637262	-3.901833
C	0.868342	-4.572261	3.502489
H	1.128551	-5.139743	4.416005
H	-0.154712	-4.153131	3.613841
H	1.595605	-3.739531	3.386756
C	-0.369957	-2.306654	-1.015430
S	0.537898	-2.306501	1.445922
C	-0.000000	-1.435185	-0.000000
H	-0.731088	-1.978138	-1.998088
C	0.000000	0.000000	0.000000
S	0.309893	0.850039	1.507541
C	0.847011	2.328006	0.718873
C	0.310046	0.849645	-1.067872
C	0.783331	2.156746	-0.686410
S	0.229416	0.619785	-2.805516
C	0.823328	2.267711	-3.054530
C	1.063278	2.934142	-1.862551
F	1.515925	4.191824	-1.819088
C	0.978337	2.688069	-4.456084
O	0.722535	1.961921	-5.406510
O	1.433229	3.959697	-4.569225
C	1.607467	4.423139	-5.916207
H	1.977475	5.460158	-5.833064
H	0.647388	4.396602	-6.470168
H	2.339490	3.791823	-6.459293
H	1.161798	3.197007	1.306486
H	-0.914194	-9.143623	-0.000738
H	0.769424	-9.149441	-0.626735
H	-1.012272	-1.443175	0.376353
$end

$rem
JOBTYPE		SP
EXCHANGE	HF
CORRELATION	pRIMP2
BASIS		cc-pvtz
METHOD		rimp2
AUX_BASIS	rimp2-cc-pvtz
SOLVENT_METHOD	PCM
PURECART	11111
SYMMETRY	false
MEM_TOTAL	110000
SCF_CONVERGENCE = 6
THRESH=10
GUI = 2
$end

$solvent
dielectric 4.90
$end
--------------------------------------------------------------

             Standard Nuclear Orientation (Angstroms)
    I     Atom           X                Y                Z
 ----------------------------------------------------------------
    1      C      -0.0700090000    -8.5177020000    -0.3131910000
    2      C       0.3054940000    -7.6415750000     0.6947460000
    3      S      -0.6149240000    -7.6386340000    -1.7623500000
    4      C       0.1767680000    -6.2647850000     0.3409730000
    5      H       0.6695710000    -7.9660810000     1.6777470000
    6      C      -0.3096000000    -6.0727140000    -1.0000690000
    7      C      -0.5253720000    -4.7870490000    -1.5200600000
    8      C       0.4638250000    -5.1628010000     1.1964660000
    9      C       0.2438880000    -3.8748170000     0.6776390000
   10      C      -0.2403120000    -3.6839520000    -0.6658150000
   11      O       0.9416260000    -5.4997720000     2.4266780000
   12      O      -1.0064680000    -4.4590550000    -2.7554600000
   13      C      -0.7616660000    -5.3290630000    -3.8539130000
   14      H      -1.0161350000    -4.7556940000    -4.7656070000
   15      H      -1.4013680000    -6.2380950000    -3.8221820000
   16      H       0.3051610000    -5.6372620000    -3.9018330000
   17      C       0.8683420000    -4.5722610000     3.5024890000
   18      H       1.1285510000    -5.1397430000     4.4160050000
   19      H      -0.1547120000    -4.1531310000     3.6138410000
   20      H       1.5956050000    -3.7395310000     3.3867560000
   21      C      -0.3699570000    -2.3066540000    -1.0154300000
   22      S       0.5378980000    -2.3065010000     1.4459220000
   23      C       0.0000000000    -1.4351850000     0.0000000000
   24      H      -0.7310880000    -1.9781380000    -1.9980880000
   25      C       0.0000000000     0.0000000000     0.0000000000
   26      S       0.3098930000     0.8500390000     1.5075410000
   27      C       0.8470110000     2.3280060000     0.7188730000
   28      C       0.3100460000     0.8496450000    -1.0678720000
   29      C       0.7833310000     2.1567460000    -0.6864100000
   30      S       0.2294160000     0.6197850000    -2.8055160000
   31      C       0.8233280000     2.2677110000    -3.0545300000
   32      C       1.0632780000     2.9341420000    -1.8625510000
   33      F       1.5159250000     4.1918240000    -1.8190880000
   34      C       0.9783370000     2.6880690000    -4.4560840000
   35      O       0.7225350000     1.9619210000    -5.4065100000
   36      O       1.4332290000     3.9596970000    -4.5692250000
   37      C       1.6074670000     4.4231390000    -5.9162070000
   38      H       1.9774750000     5.4601580000    -5.8330640000
   39      H       0.6473880000     4.3966020000    -6.4701680000
   40      H       2.3394900000     3.7918230000    -6.4592930000
   41      H       1.1617980000     3.1970070000     1.3064860000
   42      H      -0.9141940000    -9.1436230000    -0.0007380000
   43      H       0.7694240000    -9.1494410000    -0.6267350000
   44      H      -1.0122720000    -1.4431750000     0.3763530000
 ----------------------------------------------------------------

   11   -2755.3331219211      8.85e-07  Convergence criterion met
 Total energy in the final basis set =    -2755.3331219211
        RIMP2         total energy =     -2760.4255326975 a.u.

                    Orbital Energies (a.u.)
 --------------------------------------------------------------

 Alpha MOs
 -- Occupied --
-92.0152 -91.9974 -91.9819 -91.9584 -26.3431 -20.6151 -20.5883 -20.5872
-20.5617 -11.4097 -11.3821 -11.3096 -11.3094 -11.3057 -11.3056 -11.2983
-11.2951 -11.2890 -11.2856 -11.2850 -11.2847 -11.2823 -11.2816 -11.2746
-11.2732 -11.2591 -11.2588 -11.2500 -11.2377  -9.0140  -8.9976  -8.9841
 -8.9610  -6.6948  -6.6943  -6.6937  -6.6787  -6.6779  -6.6768  -6.6652
 -6.6643  -6.6630  -6.6423  -6.6413  -6.6403  -1.6602  -1.4675  -1.4116
 -1.4090  -1.3702  -1.2303  -1.2032  -1.1744  -1.1379  -1.1006  -1.0474
 -1.0450  -1.0242  -1.0045  -0.9985  -0.9633  -0.9594  -0.9490  -0.9406
 -0.8951  -0.8698  -0.8656  -0.8104  -0.8015  -0.7898  -0.7842  -0.7681
 -0.7568  -0.7379  -0.7251  -0.7142  -0.6988  -0.6891  -0.6848  -0.6808
 -0.6741  -0.6622  -0.6570  -0.6490  -0.6385  -0.6315  -0.6204  -0.6151
 -0.6122  -0.5989  -0.5931  -0.5766  -0.5712  -0.5650  -0.5595  -0.5538
 -0.5470  -0.5350  -0.5310  -0.5298  -0.5144  -0.5090  -0.5083  -0.5011
 -0.4853  -0.4817  -0.4772  -0.4741  -0.4715  -0.4678  -0.4594  -0.4468
 -0.4325  -0.3944  -0.3869  -0.3710  -0.3509  -0.2994  -0.2888  -0.2172

          Ground-State Mulliken Net Atomic Charges

     Atom                 Charge (a.u.)
  ----------------------------------------
      1 C                    -0.070237
      2 C                    -0.258991
      3 S                    -0.134779
      4 C                    -0.046080
      5 H                     0.193537
      6 C                    -0.052183
      7 C                     0.225732
      8 C                     0.225537
      9 C                    -0.074189
     10 C                    -0.048447
     11 O                    -0.333939
     12 O                    -0.344118
     13 C                    -0.083031
     14 H                     0.121128
     15 H                     0.092314
     16 H                     0.093013
     17 C                    -0.088531
     18 H                     0.124485
     19 H                     0.092721
     20 H                     0.089994
     21 C                    -0.275264
     22 S                    -0.088684
     23 C                     0.096722
     24 H                     0.202326
     25 C                    -0.071420
     26 S                     0.070666
     27 C                    -0.195321
     28 C                     0.029693
     29 C                    -0.118451
     30 S                    -0.003190
     31 C                    -0.161851
     32 C                     0.405290
     33 F                    -0.206937
     34 C                     0.445296
     35 O                    -0.460471
     36 O                    -0.300786
     37 C                    -0.058508
     38 H                     0.121487
     39 H                     0.095114
     40 H                     0.095221
     41 H                     0.218574
     42 H                     0.117506
     43 H                     0.115316
     44 H                     0.203736
  ----------------------------------------
  Sum of atomic charges =     0.000000

                    Cartesian Multipole Moments
 -----------------------------------------------------------------
    Charge (ESU x 10^10)
                 0.0000
    Dipole Moment (Debye)
         X       0.3407      Y       2.1940      Z       3.4211
       Tot       4.0784
    Quadrupole Moments (Debye-Ang)
        XX    -200.0727     XY       3.6872     YY    -175.1619
        XZ      -2.1606     YZ     -11.0342     ZZ    -187.6128

 Total job time:  359.53s(wall), 10891.19s(cpu)
        *  Thank you very much for using Q-Chem.  Have a nice day.  *
