 Q-Chem 5.4, Q-Chem, Inc., Pleasanton, CA (2021)
 Q-Chem 5.4.0 for Intel X86 EM64T Linux

User input:
--------------------------------------------------------------
$molecule
0 1
C	-0.313191	-8.517702	0.070009
C	0.694746	-7.641575	-0.305494
S	-1.762350	-7.638634	0.614924
C	0.340973	-6.264785	-0.176768
H	1.677747	-7.966081	-0.669571
C	-1.000069	-6.072714	0.309600
C	-1.520060	-4.787049	0.525372
C	1.196466	-5.162801	-0.463825
C	0.677639	-3.874817	-0.243888
C	-0.665815	-3.683952	0.240312
O	2.426678	-5.499772	-0.941626
O	-2.755460	-4.459055	1.006468
C	-3.853913	-5.329063	0.761666
H	-4.765607	-4.755694	1.016135
H	-3.822182	-6.238095	1.401368
H	-3.901833	-5.637262	-0.305161
C	3.502489	-4.572261	-0.868342
H	4.416005	-5.139743	-1.128551
H	3.613841	-4.153131	0.154712
H	3.386756	-3.739531	-1.595605
C	-1.015430	-2.306654	0.369957
S	1.445922	-2.306501	-0.537898
C	0.000000	-1.435185	0.000000
H	-1.998088	-1.978138	0.731088
C	0.000000	0.000000	0.000000
S	0.000474	0.904764	1.507541
C	-0.000295	2.477305	0.718873
C	0.000752	0.904447	-1.067872
C	-0.001560	2.294593	-0.686410
S	0.003602	0.660872	-2.805516
C	-0.001928	2.412546	-3.054530
C	-0.004381	3.120854	-1.862551
F	-0.009185	4.457503	-1.819088
C	-0.000038	2.860570	-4.456084
O	0.007944	2.090724	-5.406510
O	-0.007501	4.211092	-4.569225
C	-0.002278	4.706177	-5.916207
H	-0.009265	5.807207	-5.833064
H	-0.895381	4.352875	-6.470168
H	0.901521	4.363301	-6.459293
H	-0.001708	3.401562	1.306486
H	-0.000738	-9.143623	0.914194
H	-0.626735	-9.149441	-0.769424
H	0.376353	-1.443175	1.012272
$end

$rem
JOBTYPE		SP
EXCHANGE	HF
CORRELATION	pRIMP2
BASIS		cc-pvtz
METHOD		rimp2
AUX_BASIS	rimp2-cc-pvtz
SOLVENT_METHOD	PCM
PURECART	11111
SYMMETRY	false
MEM_TOTAL	110000
SCF_CONVERGENCE = 6
THRESH=10
GUI = 2
$end

$solvent
dielectric 4.90
$end
--------------------------------------------------------------

             Standard Nuclear Orientation (Angstroms)
    I     Atom           X                Y                Z
 ----------------------------------------------------------------
    1      C      -0.3131910000    -8.5177020000     0.0700090000
    2      C       0.6947460000    -7.6415750000    -0.3054940000
    3      S      -1.7623500000    -7.6386340000     0.6149240000
    4      C       0.3409730000    -6.2647850000    -0.1767680000
    5      H       1.6777470000    -7.9660810000    -0.6695710000
    6      C      -1.0000690000    -6.0727140000     0.3096000000
    7      C      -1.5200600000    -4.7870490000     0.5253720000
    8      C       1.1964660000    -5.1628010000    -0.4638250000
    9      C       0.6776390000    -3.8748170000    -0.2438880000
   10      C      -0.6658150000    -3.6839520000     0.2403120000
   11      O       2.4266780000    -5.4997720000    -0.9416260000
   12      O      -2.7554600000    -4.4590550000     1.0064680000
   13      C      -3.8539130000    -5.3290630000     0.7616660000
   14      H      -4.7656070000    -4.7556940000     1.0161350000
   15      H      -3.8221820000    -6.2380950000     1.4013680000
   16      H      -3.9018330000    -5.6372620000    -0.3051610000
   17      C       3.5024890000    -4.5722610000    -0.8683420000
   18      H       4.4160050000    -5.1397430000    -1.1285510000
   19      H       3.6138410000    -4.1531310000     0.1547120000
   20      H       3.3867560000    -3.7395310000    -1.5956050000
   21      C      -1.0154300000    -2.3066540000     0.3699570000
   22      S       1.4459220000    -2.3065010000    -0.5378980000
   23      C       0.0000000000    -1.4351850000     0.0000000000
   24      H      -1.9980880000    -1.9781380000     0.7310880000
   25      C       0.0000000000     0.0000000000     0.0000000000
   26      S       0.0004740000     0.9047640000     1.5075410000
   27      C      -0.0002950000     2.4773050000     0.7188730000
   28      C       0.0007520000     0.9044470000    -1.0678720000
   29      C      -0.0015600000     2.2945930000    -0.6864100000
   30      S       0.0036020000     0.6608720000    -2.8055160000
   31      C      -0.0019280000     2.4125460000    -3.0545300000
   32      C      -0.0043810000     3.1208540000    -1.8625510000
   33      F      -0.0091850000     4.4575030000    -1.8190880000
   34      C      -0.0000380000     2.8605700000    -4.4560840000
   35      O       0.0079440000     2.0907240000    -5.4065100000
   36      O      -0.0075010000     4.2110920000    -4.5692250000
   37      C      -0.0022780000     4.7061770000    -5.9162070000
   38      H      -0.0092650000     5.8072070000    -5.8330640000
   39      H      -0.8953810000     4.3528750000    -6.4701680000
   40      H       0.9015210000     4.3633010000    -6.4592930000
   41      H      -0.0017080000     3.4015620000     1.3064860000
   42      H      -0.0007380000    -9.1436230000     0.9141940000
   43      H      -0.6267350000    -9.1494410000    -0.7694240000
   44      H       0.3763530000    -1.4431750000     1.0122720000
 ----------------------------------------------------------------

   11   -2755.3452129013      7.62e-07  Convergence criterion met
 Total energy in the final basis set =    -2755.3452129013
        RIMP2         total energy =     -2760.4320548581 a.u.

                    Orbital Energies (a.u.)
 --------------------------------------------------------------

 Alpha MOs
 -- Occupied --
-92.0176 -91.9975 -91.9777 -91.9578 -26.3433 -20.6149 -20.5872 -20.5865
-20.5614 -11.4094 -11.3822 -11.3107 -11.3089 -11.3067 -11.3013 -11.2981
-11.2979 -11.2889 -11.2851 -11.2841 -11.2828 -11.2827 -11.2798 -11.2725
-11.2724 -11.2579 -11.2570 -11.2493 -11.2360  -9.0162  -8.9976  -8.9798
 -8.9605  -6.6969  -6.6964  -6.6958  -6.6786  -6.6779  -6.6768  -6.6609
 -6.6600  -6.6587  -6.6417  -6.6408  -6.6397  -1.6604  -1.4673  -1.4100
 -1.4088  -1.3700  -1.2286  -1.2026  -1.1733  -1.1376  -1.0996  -1.0460
 -1.0439  -1.0247  -1.0035  -0.9967  -0.9630  -0.9581  -0.9481  -0.9408
 -0.8930  -0.8683  -0.8667  -0.8145  -0.7966  -0.7894  -0.7844  -0.7678
 -0.7567  -0.7376  -0.7253  -0.7166  -0.6969  -0.6867  -0.6846  -0.6796
 -0.6739  -0.6606  -0.6559  -0.6484  -0.6349  -0.6297  -0.6197  -0.6150
 -0.6107  -0.5992  -0.5918  -0.5768  -0.5712  -0.5637  -0.5591  -0.5558
 -0.5500  -0.5319  -0.5312  -0.5242  -0.5127  -0.5080  -0.5071  -0.5014
 -0.4854  -0.4813  -0.4764  -0.4738  -0.4701  -0.4673  -0.4609  -0.4465
 -0.4243  -0.3987  -0.3852  -0.3698  -0.3512  -0.3007  -0.2893  -0.2203

          Ground-State Mulliken Net Atomic Charges

     Atom                 Charge (a.u.)
  ----------------------------------------
      1 C                    -0.070042
      2 C                    -0.261934
      3 S                    -0.136465
      4 C                    -0.044005
      5 H                     0.193112
      6 C                    -0.052753
      7 C                     0.226033
      8 C                     0.224861
      9 C                    -0.076890
     10 C                    -0.057299
     11 O                    -0.335100
     12 O                    -0.343518
     13 C                    -0.082700
     14 H                     0.119852
     15 H                     0.091982
     16 H                     0.093191
     17 C                    -0.086252
     18 H                     0.123053
     19 H                     0.091719
     20 H                     0.091016
     21 C                    -0.251619
     22 S                    -0.071340
     23 C                     0.083047
     24 H                     0.204945
     25 C                    -0.109299
     26 S                     0.092424
     27 C                    -0.187861
     28 C                     0.032911
     29 C                    -0.117527
     30 S                     0.009192
     31 C                    -0.156998
     32 C                     0.400824
     33 F                    -0.207375
     34 C                     0.443973
     35 O                    -0.460349
     36 O                    -0.300559
     37 C                    -0.058662
     38 H                     0.121336
     39 H                     0.095199
     40 H                     0.095157
     41 H                     0.218909
     42 H                     0.116836
     43 H                     0.114788
     44 H                     0.184186
  ----------------------------------------
  Sum of atomic charges =     0.000000

                    Cartesian Multipole Moments
 -----------------------------------------------------------------
    Charge (ESU x 10^10)
                -0.0000
    Dipole Moment (Debye)
         X       0.3039      Y       3.1003      Z       3.4543
       Tot       4.6515
    Quadrupole Moments (Debye-Ang)
        XX    -183.4523     XY      -3.5341     YY    -176.0956
        XZ      -0.2818     YZ      -6.0889     ZZ    -206.1966

 Total job time:  343.56s(wall), 11843.00s(cpu)
        *  Thank you very much for using Q-Chem.  Have a nice day.  *
