 Q-Chem 5.4, Q-Chem, Inc., Pleasanton, CA (2021)
 Q-Chem 5.4.0 for Intel X86 EM64T Linux

User input:
--------------------------------------------------------------
$molecule
0 1
C	-0.254945	-8.517702	-0.194917
C	0.680596	-7.641575	0.335839
S	-1.603876	-7.638634	-0.954772
C	0.354585	-6.264785	0.147576
H	1.591356	-7.966081	0.854836
C	-0.879999	-6.072714	-0.567090
C	-1.379534	-4.787049	-0.826731
C	1.124384	-5.162801	0.618405
C	0.622407	-3.874817	0.362333
C	-0.612067	-3.683952	-0.355575
O	2.281166	-5.499772	1.253677
O	-2.542174	-4.459055	-1.463859
C	-3.060718	-5.329063	-2.462679
H	-3.841678	-4.755694	-2.997507
H	-3.530361	-6.238095	-2.027179
H	-2.274283	-5.637262	-3.185132
C	2.916545	-4.572261	2.124902
H	3.703073	-5.139743	2.657438
H	2.204417	-4.153131	2.867810
H	3.399269	-3.739531	1.568770
C	-0.936109	-2.306654	-0.540061
S	1.341474	-2.306501	0.761887
C	-0.000000	-1.435185	-0.000000
H	-1.844392	-1.978138	-1.060690
C	0.000000	0.000000	0.000000
S	0.309893	0.850039	1.507541
C	0.847011	2.328006	0.718873
C	0.310046	0.849645	-1.067872
C	0.783331	2.156746	-0.686410
S	0.229416	0.619785	-2.805516
C	0.823328	2.267711	-3.054530
C	1.063278	2.934142	-1.862551
F	1.515925	4.191824	-1.819088
C	0.978337	2.688069	-4.456084
O	0.722535	1.961921	-5.406510
O	1.433229	3.959697	-4.569225
C	1.607467	4.423139	-5.916207
H	1.977475	5.460158	-5.833064
H	0.647388	4.396602	-6.470168
H	2.339490	3.791823	-6.459293
H	1.161798	3.197007	1.306486
H	-0.700788	-9.143623	0.587067
H	0.186556	-9.149441	-0.974683
H	-0.533530	-1.443175	0.938979
$end

$rem
JOBTYPE		SP
EXCHANGE	HF
CORRELATION	pRIMP2
BASIS		cc-pvtz
METHOD		rimp2
AUX_BASIS	rimp2-cc-pvtz
SOLVENT_METHOD	PCM
PURECART	11111
SYMMETRY	false
MEM_TOTAL	110000
SCF_CONVERGENCE = 6
THRESH=10
GUI = 2
$end

$solvent
dielectric 4.90
$end
--------------------------------------------------------------

             Standard Nuclear Orientation (Angstroms)
    I     Atom           X                Y                Z
 ----------------------------------------------------------------
    1      C      -0.2549450000    -8.5177020000    -0.1949170000
    2      C       0.6805960000    -7.6415750000     0.3358390000
    3      S      -1.6038760000    -7.6386340000    -0.9547720000
    4      C       0.3545850000    -6.2647850000     0.1475760000
    5      H       1.5913560000    -7.9660810000     0.8548360000
    6      C      -0.8799990000    -6.0727140000    -0.5670900000
    7      C      -1.3795340000    -4.7870490000    -0.8267310000
    8      C       1.1243840000    -5.1628010000     0.6184050000
    9      C       0.6224070000    -3.8748170000     0.3623330000
   10      C      -0.6120670000    -3.6839520000    -0.3555750000
   11      O       2.2811660000    -5.4997720000     1.2536770000
   12      O      -2.5421740000    -4.4590550000    -1.4638590000
   13      C      -3.0607180000    -5.3290630000    -2.4626790000
   14      H      -3.8416780000    -4.7556940000    -2.9975070000
   15      H      -3.5303610000    -6.2380950000    -2.0271790000
   16      H      -2.2742830000    -5.6372620000    -3.1851320000
   17      C       2.9165450000    -4.5722610000     2.1249020000
   18      H       3.7030730000    -5.1397430000     2.6574380000
   19      H       2.2044170000    -4.1531310000     2.8678100000
   20      H       3.3992690000    -3.7395310000     1.5687700000
   21      C      -0.9361090000    -2.3066540000    -0.5400610000
   22      S       1.3414740000    -2.3065010000     0.7618870000
   23      C       0.0000000000    -1.4351850000     0.0000000000
   24      H      -1.8443920000    -1.9781380000    -1.0606900000
   25      C       0.0000000000     0.0000000000     0.0000000000
   26      S       0.3098930000     0.8500390000     1.5075410000
   27      C       0.8470110000     2.3280060000     0.7188730000
   28      C       0.3100460000     0.8496450000    -1.0678720000
   29      C       0.7833310000     2.1567460000    -0.6864100000
   30      S       0.2294160000     0.6197850000    -2.8055160000
   31      C       0.8233280000     2.2677110000    -3.0545300000
   32      C       1.0632780000     2.9341420000    -1.8625510000
   33      F       1.5159250000     4.1918240000    -1.8190880000
   34      C       0.9783370000     2.6880690000    -4.4560840000
   35      O       0.7225350000     1.9619210000    -5.4065100000
   36      O       1.4332290000     3.9596970000    -4.5692250000
   37      C       1.6074670000     4.4231390000    -5.9162070000
   38      H       1.9774750000     5.4601580000    -5.8330640000
   39      H       0.6473880000     4.3966020000    -6.4701680000
   40      H       2.3394900000     3.7918230000    -6.4592930000
   41      H       1.1617980000     3.1970070000     1.3064860000
   42      H      -0.7007880000    -9.1436230000     0.5870670000
   43      H       0.1865560000    -9.1494410000    -0.9746830000
   44      H      -0.5335300000    -1.4431750000     0.9389790000
 ----------------------------------------------------------------

   11   -2755.3378343552      7.81e-07  Convergence criterion met
 Total energy in the final basis set =    -2755.3378343552
        RIMP2         total energy =     -2760.4269789790 a.u.

                    Orbital Energies (a.u.)
 --------------------------------------------------------------

 Alpha MOs
 -- Occupied --
-92.0170 -91.9991 -91.9770 -91.9574 -26.3438 -20.6151 -20.5867 -20.5863
-20.5616 -11.4097 -11.3830 -11.3135 -11.3086 -11.3061 -11.3002 -11.2982
-11.2973 -11.2890 -11.2854 -11.2843 -11.2826 -11.2822 -11.2785 -11.2723
-11.2718 -11.2575 -11.2563 -11.2489 -11.2351  -9.0157  -8.9992  -8.9793
 -8.9600  -6.6964  -6.6959  -6.6953  -6.6802  -6.6795  -6.6784  -6.6604
 -6.6595  -6.6582  -6.6412  -6.6403  -6.6393  -1.6609  -1.4676  -1.4098
 -1.4084  -1.3703  -1.2294  -1.2023  -1.1729  -1.1381  -1.0991  -1.0456
 -1.0445  -1.0248  -1.0034  -0.9964  -0.9630  -0.9590  -0.9479  -0.9402
 -0.8930  -0.8689  -0.8659  -0.8131  -0.7993  -0.7885  -0.7842  -0.7670
 -0.7568  -0.7375  -0.7257  -0.7167  -0.6973  -0.6864  -0.6847  -0.6795
 -0.6741  -0.6605  -0.6558  -0.6481  -0.6341  -0.6304  -0.6192  -0.6145
 -0.6117  -0.5995  -0.5916  -0.5754  -0.5716  -0.5641  -0.5579  -0.5527
 -0.5467  -0.5333  -0.5311  -0.5268  -0.5129  -0.5076  -0.5070  -0.5009
 -0.4850  -0.4816  -0.4758  -0.4744  -0.4728  -0.4688  -0.4599  -0.4455
 -0.4251  -0.3979  -0.3850  -0.3694  -0.3509  -0.3016  -0.2884  -0.2190

          Ground-State Mulliken Net Atomic Charges

     Atom                 Charge (a.u.)
  ----------------------------------------
      1 C                    -0.069917
      2 C                    -0.265255
      3 S                    -0.136869
      4 C                    -0.042408
      5 H                     0.192684
      6 C                    -0.052267
      7 C                     0.223080
      8 C                     0.221458
      9 C                    -0.075427
     10 C                    -0.050264
     11 O                    -0.335059
     12 O                    -0.343628
     13 C                    -0.082566
     14 H                     0.120102
     15 H                     0.091759
     16 H                     0.093176
     17 C                    -0.086920
     18 H                     0.123084
     19 H                     0.091524
     20 H                     0.090230
     21 C                    -0.253933
     22 S                    -0.072040
     23 C                     0.045082
     24 H                     0.208960
     25 C                    -0.100672
     26 S                     0.088263
     27 C                    -0.177673
     28 C                     0.044765
     29 C                    -0.111601
     30 S                     0.010641
     31 C                    -0.156412
     32 C                     0.399870
     33 F                    -0.206806
     34 C                     0.444290
     35 O                    -0.460576
     36 O                    -0.300815
     37 C                    -0.058405
     38 H                     0.121381
     39 H                     0.095115
     40 H                     0.095272
     41 H                     0.218863
     42 H                     0.116530
     43 H                     0.114375
     44 H                     0.189008
  ----------------------------------------
  Sum of atomic charges =     0.000000

                    Cartesian Multipole Moments
 -----------------------------------------------------------------
    Charge (ESU x 10^10)
                -0.0000
    Dipole Moment (Debye)
         X       0.8090      Y       3.2572      Z       3.4619
       Tot       4.8216
    Quadrupole Moments (Debye-Ang)
        XX    -192.1204     XY       2.1561     YY    -179.0351
        XZ       6.6486     YZ      -8.7466     ZZ    -195.4586

 Total job time:  349.89s(wall), 10977.29s(cpu)
        *  Thank you very much for using Q-Chem.  Have a nice day.  *
