 Q-Chem 5.4, Q-Chem, Inc., Pleasanton, CA (2021)
 Q-Chem 5.4.0 for Intel X86 EM64T Linux

User input:
--------------------------------------------------------------
$molecule
0 1
C	0.313191	-8.517702	-0.070009
C	-0.694746	-7.641575	0.305494
S	1.762350	-7.638634	-0.614924
C	-0.340973	-6.264785	0.176768
H	-1.677747	-7.966081	0.669571
C	1.000069	-6.072714	-0.309600
C	1.520060	-4.787049	-0.525372
C	-1.196466	-5.162801	0.463825
C	-0.677639	-3.874817	0.243888
C	0.665815	-3.683952	-0.240312
O	-2.426678	-5.499772	0.941626
O	2.755460	-4.459055	-1.006468
C	3.853913	-5.329063	-0.761666
H	4.765607	-4.755694	-1.016135
H	3.822182	-6.238095	-1.401368
H	3.901833	-5.637262	0.305161
C	-3.502489	-4.572261	0.868342
H	-4.416005	-5.139743	1.128551
H	-3.613841	-4.153131	-0.154712
H	-3.386756	-3.739531	1.595605
C	1.015430	-2.306654	-0.369957
S	-1.445922	-2.306501	0.537898
C	-0.000000	-1.435185	-0.000000
H	1.998088	-1.978138	-0.731088
C	0.000000	0.000000	0.000000
S	0.382799	0.819795	1.507541
C	1.046687	2.245325	0.718873
C	0.382918	0.819389	-1.067872
C	0.968323	2.080267	-0.686410
S	0.282561	0.597432	-2.805516
C	1.017839	2.187324	-3.054530
C	1.314960	2.830306	-1.862551
F	1.875498	4.043751	-1.819088
C	1.208895	2.592573	-4.456084
O	0.890778	1.891482	-5.406510
O	1.772886	3.819715	-4.569225
C	1.986852	4.266207	-5.916207
H	2.445834	5.267032	-5.833064
H	1.028114	4.323448	-6.470168
H	2.661066	3.573494	-6.459293
H	1.436015	3.083584	1.306486
H	0.000738	-9.143623	-0.914194
H	0.626735	-9.149441	0.769424
H	-0.376353	-1.443175	-1.012272
$end

$rem
JOBTYPE		SP
EXCHANGE	HF
CORRELATION	pRIMP2
BASIS		cc-pvtz
METHOD		rimp2
AUX_BASIS	rimp2-cc-pvtz
SOLVENT_METHOD	PCM
PURECART	11111
SYMMETRY	false
MEM_TOTAL	110000
SCF_CONVERGENCE = 6
THRESH=10
GUI = 2
$end

$solvent
dielectric 4.90
$end
--------------------------------------------------------------

             Standard Nuclear Orientation (Angstroms)
    I     Atom           X                Y                Z
 ----------------------------------------------------------------
    1      C       0.3131910000    -8.5177020000    -0.0700090000
    2      C      -0.6947460000    -7.6415750000     0.3054940000
    3      S       1.7623500000    -7.6386340000    -0.6149240000
    4      C      -0.3409730000    -6.2647850000     0.1767680000
    5      H      -1.6777470000    -7.9660810000     0.6695710000
    6      C       1.0000690000    -6.0727140000    -0.3096000000
    7      C       1.5200600000    -4.7870490000    -0.5253720000
    8      C      -1.1964660000    -5.1628010000     0.4638250000
    9      C      -0.6776390000    -3.8748170000     0.2438880000
   10      C       0.6658150000    -3.6839520000    -0.2403120000
   11      O      -2.4266780000    -5.4997720000     0.9416260000
   12      O       2.7554600000    -4.4590550000    -1.0064680000
   13      C       3.8539130000    -5.3290630000    -0.7616660000
   14      H       4.7656070000    -4.7556940000    -1.0161350000
   15      H       3.8221820000    -6.2380950000    -1.4013680000
   16      H       3.9018330000    -5.6372620000     0.3051610000
   17      C      -3.5024890000    -4.5722610000     0.8683420000
   18      H      -4.4160050000    -5.1397430000     1.1285510000
   19      H      -3.6138410000    -4.1531310000    -0.1547120000
   20      H      -3.3867560000    -3.7395310000     1.5956050000
   21      C       1.0154300000    -2.3066540000    -0.3699570000
   22      S      -1.4459220000    -2.3065010000     0.5378980000
   23      C       0.0000000000    -1.4351850000     0.0000000000
   24      H       1.9980880000    -1.9781380000    -0.7310880000
   25      C       0.0000000000     0.0000000000     0.0000000000
   26      S       0.3827990000     0.8197950000     1.5075410000
   27      C       1.0466870000     2.2453250000     0.7188730000
   28      C       0.3829180000     0.8193890000    -1.0678720000
   29      C       0.9683230000     2.0802670000    -0.6864100000
   30      S       0.2825610000     0.5974320000    -2.8055160000
   31      C       1.0178390000     2.1873240000    -3.0545300000
   32      C       1.3149600000     2.8303060000    -1.8625510000
   33      F       1.8754980000     4.0437510000    -1.8190880000
   34      C       1.2088950000     2.5925730000    -4.4560840000
   35      O       0.8907780000     1.8914820000    -5.4065100000
   36      O       1.7728860000     3.8197150000    -4.5692250000
   37      C       1.9868520000     4.2662070000    -5.9162070000
   38      H       2.4458340000     5.2670320000    -5.8330640000
   39      H       1.0281140000     4.3234480000    -6.4701680000
   40      H       2.6610660000     3.5734940000    -6.4592930000
   41      H       1.4360150000     3.0835840000     1.3064860000
   42      H       0.0007380000    -9.1436230000    -0.9141940000
   43      H       0.6267350000    -9.1494410000     0.7694240000
   44      H      -0.3763530000    -1.4431750000    -1.0122720000
 ----------------------------------------------------------------

   11   -2755.3376474827      6.78e-07  Convergence criterion met
 Total energy in the final basis set =    -2755.3376474827
        RIMP2         total energy =     -2760.4281317481 a.u.

                    Orbital Energies (a.u.)
 --------------------------------------------------------------

 Alpha MOs
 -- Occupied --
-92.0107 -92.0021 -91.9756 -91.9578 -26.3451 -20.6156 -20.5869 -20.5864
-20.5621 -11.4104 -11.3849 -11.3152 -11.3087 -11.3072 -11.3063 -11.2991
-11.2967 -11.2894 -11.2862 -11.2840 -11.2826 -11.2821 -11.2793 -11.2724
-11.2716 -11.2577 -11.2571 -11.2493 -11.2361  -9.0098  -9.0021  -8.9779
 -8.9604  -6.6905  -6.6898  -6.6894  -6.6831  -6.6824  -6.6813  -6.6590
 -6.6581  -6.6569  -6.6417  -6.6407  -6.6397  -1.6621  -1.4681  -1.4099
 -1.4086  -1.3708  -1.2312  -1.2021  -1.1730  -1.1377  -1.1004  -1.0472
 -1.0453  -1.0241  -1.0027  -0.9967  -0.9629  -0.9588  -0.9484  -0.9416
 -0.8927  -0.8713  -0.8640  -0.8128  -0.7973  -0.7903  -0.7838  -0.7674
 -0.7591  -0.7352  -0.7268  -0.7106  -0.7008  -0.6947  -0.6855  -0.6797
 -0.6746  -0.6651  -0.6553  -0.6482  -0.6355  -0.6301  -0.6197  -0.6147
 -0.6114  -0.5997  -0.5927  -0.5772  -0.5713  -0.5657  -0.5574  -0.5547
 -0.5471  -0.5318  -0.5281  -0.5259  -0.5126  -0.5090  -0.5069  -0.5013
 -0.4850  -0.4819  -0.4760  -0.4747  -0.4690  -0.4685  -0.4599  -0.4458
 -0.4219  -0.4005  -0.3843  -0.3696  -0.3513  -0.3037  -0.2887  -0.2200

          Ground-State Mulliken Net Atomic Charges

     Atom                 Charge (a.u.)
  ----------------------------------------
      1 C                    -0.070216
      2 C                    -0.262016
      3 S                    -0.135883
      4 C                    -0.044914
      5 H                     0.193091
      6 C                    -0.052985
      7 C                     0.222108
      8 C                     0.229744
      9 C                    -0.082572
     10 C                    -0.041127
     11 O                    -0.335485
     12 O                    -0.343126
     13 C                    -0.082657
     14 H                     0.119931
     15 H                     0.092174
     16 H                     0.092551
     17 C                    -0.086277
     18 H                     0.122961
     19 H                     0.092250
     20 H                     0.090056
     21 C                    -0.264783
     22 S                    -0.073580
     23 C                     0.062642
     24 H                     0.208655
     25 C                    -0.065732
     26 S                     0.089198
     27 C                    -0.174126
     28 C                    -0.033747
     29 C                    -0.090559
     30 S                     0.014432
     31 C                    -0.157599
     32 C                     0.397274
     33 F                    -0.205195
     34 C                     0.446362
     35 O                    -0.461015
     36 O                    -0.301035
     37 C                    -0.058401
     38 H                     0.121551
     39 H                     0.095318
     40 H                     0.095252
     41 H                     0.217802
     42 H                     0.117104
     43 H                     0.114668
     44 H                     0.187906
  ----------------------------------------
  Sum of atomic charges =     0.000000

                    Cartesian Multipole Moments
 -----------------------------------------------------------------
    Charge (ESU x 10^10)
                -0.0000
    Dipole Moment (Debye)
         X       1.0463      Y       3.0673      Z       2.3155
       Tot       3.9831
    Quadrupole Moments (Debye-Ang)
        XX    -180.5332     XY       9.7604     YY    -178.2770
        XZ      -3.4634     YZ      -8.2315     ZZ    -206.1307

 Total job time:  333.74s(wall), 11110.55s(cpu)
        *  Thank you very much for using Q-Chem.  Have a nice day.  *
