 Q-Chem 5.4, Q-Chem, Inc., Pleasanton, CA (2021)
 Q-Chem 5.4.0 for Intel X86 EM64T Linux

User input:
--------------------------------------------------------------
$molecule
0 1
C	-0.318247	-8.517702	-0.041330
C	0.757333	-7.641575	-0.049453
S	-1.866383	-7.638634	-0.024919
C	0.380867	-6.264785	-0.049488
H	1.805573	-7.966081	-0.055368
C	-1.045647	-6.072714	-0.051115
C	-1.608077	-4.787049	-0.026203
C	1.282948	-5.162801	-0.026637
C	0.720187	-3.874817	0.002586
C	-0.707853	-3.683952	-0.001903
O	2.602386	-5.499772	-0.054867
O	-2.933517	-4.459055	0.003348
C	-3.881999	-5.329063	-0.602384
H	-4.825744	-4.755694	-0.675079
H	-4.070972	-6.238095	0.009592
H	-3.562152	-5.637262	-1.621263
C	3.588253	-4.572261	0.381947
H	4.535674	-5.139743	0.449872
H	3.342986	-4.153131	1.381388
H	3.728239	-3.739531	-0.341040
C	-1.080725	-2.306654	0.000348
S	1.542694	-2.306501	-0.010924
C	-0.000000	-1.435185	-0.000000
H	-2.127635	-1.978138	0.003612
C	0.000000	0.000000	0.000000
S	0.382799	0.819795	1.507541
C	1.046687	2.245325	0.718873
C	0.382918	0.819389	-1.067872
C	0.968323	2.080267	-0.686410
S	0.282561	0.597432	-2.805516
C	1.017839	2.187324	-3.054530
C	1.314960	2.830306	-1.862551
F	1.875498	4.043751	-1.819088
C	1.208895	2.592573	-4.456084
O	0.890778	1.891482	-5.406510
O	1.772886	3.819715	-4.569225
C	1.986852	4.266207	-5.916207
H	2.445834	5.267032	-5.833064
H	1.028114	4.323448	-6.470168
H	2.661066	3.573494	-6.459293
H	1.436015	3.083584	1.306486
H	-0.313367	-9.143623	0.858809
H	-0.325780	-9.149441	-0.937378
H	0.007439	-1.443175	1.079945
$end

$rem
JOBTYPE		SP
EXCHANGE	HF
CORRELATION	pRIMP2
BASIS		cc-pvtz
METHOD		rimp2
AUX_BASIS	rimp2-cc-pvtz
SOLVENT_METHOD	PCM
PURECART	11111
SYMMETRY	false
MEM_TOTAL	110000
SCF_CONVERGENCE = 6
THRESH=10
GUI = 2
$end

$solvent
dielectric 4.90
$end
--------------------------------------------------------------

             Standard Nuclear Orientation (Angstroms)
    I     Atom           X                Y                Z
 ----------------------------------------------------------------
    1      C      -0.3182470000    -8.5177020000    -0.0413300000
    2      C       0.7573330000    -7.6415750000    -0.0494530000
    3      S      -1.8663830000    -7.6386340000    -0.0249190000
    4      C       0.3808670000    -6.2647850000    -0.0494880000
    5      H       1.8055730000    -7.9660810000    -0.0553680000
    6      C      -1.0456470000    -6.0727140000    -0.0511150000
    7      C      -1.6080770000    -4.7870490000    -0.0262030000
    8      C       1.2829480000    -5.1628010000    -0.0266370000
    9      C       0.7201870000    -3.8748170000     0.0025860000
   10      C      -0.7078530000    -3.6839520000    -0.0019030000
   11      O       2.6023860000    -5.4997720000    -0.0548670000
   12      O      -2.9335170000    -4.4590550000     0.0033480000
   13      C      -3.8819990000    -5.3290630000    -0.6023840000
   14      H      -4.8257440000    -4.7556940000    -0.6750790000
   15      H      -4.0709720000    -6.2380950000     0.0095920000
   16      H      -3.5621520000    -5.6372620000    -1.6212630000
   17      C       3.5882530000    -4.5722610000     0.3819470000
   18      H       4.5356740000    -5.1397430000     0.4498720000
   19      H       3.3429860000    -4.1531310000     1.3813880000
   20      H       3.7282390000    -3.7395310000    -0.3410400000
   21      C      -1.0807250000    -2.3066540000     0.0003480000
   22      S       1.5426940000    -2.3065010000    -0.0109240000
   23      C       0.0000000000    -1.4351850000     0.0000000000
   24      H      -2.1276350000    -1.9781380000     0.0036120000
   25      C       0.0000000000     0.0000000000     0.0000000000
   26      S       0.3827990000     0.8197950000     1.5075410000
   27      C       1.0466870000     2.2453250000     0.7188730000
   28      C       0.3829180000     0.8193890000    -1.0678720000
   29      C       0.9683230000     2.0802670000    -0.6864100000
   30      S       0.2825610000     0.5974320000    -2.8055160000
   31      C       1.0178390000     2.1873240000    -3.0545300000
   32      C       1.3149600000     2.8303060000    -1.8625510000
   33      F       1.8754980000     4.0437510000    -1.8190880000
   34      C       1.2088950000     2.5925730000    -4.4560840000
   35      O       0.8907780000     1.8914820000    -5.4065100000
   36      O       1.7728860000     3.8197150000    -4.5692250000
   37      C       1.9868520000     4.2662070000    -5.9162070000
   38      H       2.4458340000     5.2670320000    -5.8330640000
   39      H       1.0281140000     4.3234480000    -6.4701680000
   40      H       2.6610660000     3.5734940000    -6.4592930000
   41      H       1.4360150000     3.0835840000     1.3064860000
   42      H      -0.3133670000    -9.1436230000     0.8588090000
   43      H      -0.3257800000    -9.1494410000    -0.9373780000
   44      H       0.0074390000    -1.4431750000     1.0799450000
 ----------------------------------------------------------------

   11   -2755.3342888118      7.31e-07  Convergence criterion met
 Total energy in the final basis set =    -2755.3342888118
        RIMP2         total energy =     -2760.4236166313 a.u.

                    Orbital Energies (a.u.)
 --------------------------------------------------------------

 Alpha MOs
 -- Occupied --
-92.0170 -92.0003 -91.9758 -91.9569 -26.3441 -20.6151 -20.5866 -20.5858
-20.5615 -11.4097 -11.3835 -11.3163 -11.3082 -11.3054 -11.3025 -11.2981
-11.2936 -11.2890 -11.2857 -11.2838 -11.2823 -11.2819 -11.2774 -11.2709
-11.2709 -11.2571 -11.2546 -11.2485 -11.2343  -9.0158  -9.0003  -8.9780
 -8.9595  -6.6965  -6.6959  -6.6954  -6.6813  -6.6805  -6.6794  -6.6591
 -6.6583  -6.6570  -6.6408  -6.6398  -6.6388  -1.6612  -1.4675  -1.4094
 -1.4082  -1.3702  -1.2302  -1.2017  -1.1724  -1.1384  -1.0985  -1.0458
 -1.0439  -1.0254  -1.0028  -0.9955  -0.9635  -0.9584  -0.9476  -0.9403
 -0.8924  -0.8694  -0.8648  -0.8151  -0.7973  -0.7885  -0.7838  -0.7669
 -0.7569  -0.7375  -0.7260  -0.7172  -0.6966  -0.6865  -0.6847  -0.6790
 -0.6741  -0.6603  -0.6554  -0.6479  -0.6334  -0.6297  -0.6189  -0.6145
 -0.6111  -0.5997  -0.5912  -0.5750  -0.5722  -0.5630  -0.5585  -0.5545
 -0.5449  -0.5329  -0.5312  -0.5244  -0.5122  -0.5079  -0.5066  -0.5004
 -0.4853  -0.4822  -0.4757  -0.4742  -0.4699  -0.4686  -0.4602  -0.4455
 -0.4217  -0.3997  -0.3842  -0.3691  -0.3506  -0.3034  -0.2884  -0.2195

          Ground-State Mulliken Net Atomic Charges

     Atom                 Charge (a.u.)
  ----------------------------------------
      1 C                    -0.069713
      2 C                    -0.266870
      3 S                    -0.138579
      4 C                    -0.042058
      5 H                     0.192538
      6 C                    -0.054616
      7 C                     0.225311
      8 C                     0.221567
      9 C                    -0.073208
     10 C                    -0.047664
     11 O                    -0.335085
     12 O                    -0.343201
     13 C                    -0.082500
     14 H                     0.119766
     15 H                     0.091713
     16 H                     0.093090
     17 C                    -0.086645
     18 H                     0.122920
     19 H                     0.091280
     20 H                     0.090574
     21 C                    -0.261889
     22 S                    -0.070306
     23 C                     0.039028
     24 H                     0.204709
     25 C                    -0.058685
     26 S                     0.093892
     27 C                    -0.180177
     28 C                    -0.013210
     29 C                    -0.086716
     30 S                     0.019217
     31 C                    -0.156097
     32 C                     0.395558
     33 F                    -0.206232
     34 C                     0.445497
     35 O                    -0.460711
     36 O                    -0.300986
     37 C                    -0.058412
     38 H                     0.121356
     39 H                     0.095188
     40 H                     0.095256
     41 H                     0.219548
     42 H                     0.116112
     43 H                     0.114031
     44 H                     0.185411
  ----------------------------------------
  Sum of atomic charges =     0.000000

                    Cartesian Multipole Moments
 -----------------------------------------------------------------
    Charge (ESU x 10^10)
                 0.0000
    Dipole Moment (Debye)
         X       1.4197      Y       3.5325      Z       3.4057
       Tot       5.1081
    Quadrupole Moments (Debye-Ang)
        XX    -182.6308     XY       2.6999     YY    -181.4733
        XZ       2.5796     YZ      -6.6046     ZZ    -203.7752

 Total job time:  327.94s(wall), 10751.87s(cpu)
        *  Thank you very much for using Q-Chem.  Have a nice day.  *
