 Q-Chem 5.4, Q-Chem, Inc., Pleasanton, CA (2021)
 Q-Chem 5.4.0 for Intel X86 EM64T Linux

User input:
--------------------------------------------------------------
$molecule
0 1
C	-0.070009	-8.517702	-0.313191
C	0.305494	-7.641575	0.694746
S	-0.614924	-7.638634	-1.762350
C	0.176768	-6.264785	0.340973
H	0.669571	-7.966081	1.677747
C	-0.309600	-6.072714	-1.000069
C	-0.525372	-4.787049	-1.520060
C	0.463825	-5.162801	1.196466
C	0.243888	-3.874817	0.677639
C	-0.240312	-3.683952	-0.665815
O	0.941626	-5.499772	2.426678
O	-1.006468	-4.459055	-2.755460
C	-0.761666	-5.329063	-3.853913
H	-1.016135	-4.755694	-4.765607
H	-1.401368	-6.238095	-3.822182
H	0.305161	-5.637262	-3.901833
C	0.868342	-4.572261	3.502489
H	1.128551	-5.139743	4.416005
H	-0.154712	-4.153131	3.613841
H	1.595605	-3.739531	3.386756
C	-0.369957	-2.306654	-1.015430
S	0.537898	-2.306501	1.445922
C	0.000000	-1.435185	0.000000
H	-0.731088	-1.978138	-1.998088
C	0.000000	0.000000	0.000000
S	0.234628	0.873813	1.507541
C	0.640889	2.392969	0.718873
C	0.234815	0.873434	-1.067872
C	0.592377	2.216811	-0.686410
S	0.174526	0.637422	-2.805516
C	0.622551	2.330840	-3.054530
C	0.803505	3.015647	-1.862551
F	1.144815	4.307994	-1.819088
C	0.740334	2.763108	-4.456084
O	0.548793	2.017428	-5.406510
O	1.082665	4.069544	-4.569225
C	1.215848	4.546407	-5.916207
H	1.494066	5.611729	-5.833064
H	0.261736	4.436296	-6.470168
H	2.000108	3.981294	-6.459293
H	0.878739	3.286099	1.306486
H	-0.914194	-9.143623	-0.000738
H	0.769424	-9.149441	-0.626735
H	-1.012272	-1.443175	0.376353
$end

$rem
JOBTYPE		SP
EXCHANGE	HF
CORRELATION	pRIMP2
BASIS		cc-pvtz
METHOD		rimp2
AUX_BASIS	rimp2-cc-pvtz
SOLVENT_METHOD	PCM
PURECART	11111
SYMMETRY	false
MEM_TOTAL	110000
SCF_CONVERGENCE = 6
THRESH=10
GUI = 2
$end

$solvent
dielectric 4.90
$end
--------------------------------------------------------------

             Standard Nuclear Orientation (Angstroms)
    I     Atom           X                Y                Z
 ----------------------------------------------------------------
    1      C      -0.0700090000    -8.5177020000    -0.3131910000
    2      C       0.3054940000    -7.6415750000     0.6947460000
    3      S      -0.6149240000    -7.6386340000    -1.7623500000
    4      C       0.1767680000    -6.2647850000     0.3409730000
    5      H       0.6695710000    -7.9660810000     1.6777470000
    6      C      -0.3096000000    -6.0727140000    -1.0000690000
    7      C      -0.5253720000    -4.7870490000    -1.5200600000
    8      C       0.4638250000    -5.1628010000     1.1964660000
    9      C       0.2438880000    -3.8748170000     0.6776390000
   10      C      -0.2403120000    -3.6839520000    -0.6658150000
   11      O       0.9416260000    -5.4997720000     2.4266780000
   12      O      -1.0064680000    -4.4590550000    -2.7554600000
   13      C      -0.7616660000    -5.3290630000    -3.8539130000
   14      H      -1.0161350000    -4.7556940000    -4.7656070000
   15      H      -1.4013680000    -6.2380950000    -3.8221820000
   16      H       0.3051610000    -5.6372620000    -3.9018330000
   17      C       0.8683420000    -4.5722610000     3.5024890000
   18      H       1.1285510000    -5.1397430000     4.4160050000
   19      H      -0.1547120000    -4.1531310000     3.6138410000
   20      H       1.5956050000    -3.7395310000     3.3867560000
   21      C      -0.3699570000    -2.3066540000    -1.0154300000
   22      S       0.5378980000    -2.3065010000     1.4459220000
   23      C       0.0000000000    -1.4351850000     0.0000000000
   24      H      -0.7310880000    -1.9781380000    -1.9980880000
   25      C       0.0000000000     0.0000000000     0.0000000000
   26      S       0.2346280000     0.8738130000     1.5075410000
   27      C       0.6408890000     2.3929690000     0.7188730000
   28      C       0.2348150000     0.8734340000    -1.0678720000
   29      C       0.5923770000     2.2168110000    -0.6864100000
   30      S       0.1745260000     0.6374220000    -2.8055160000
   31      C       0.6225510000     2.3308400000    -3.0545300000
   32      C       0.8035050000     3.0156470000    -1.8625510000
   33      F       1.1448150000     4.3079940000    -1.8190880000
   34      C       0.7403340000     2.7631080000    -4.4560840000
   35      O       0.5487930000     2.0174280000    -5.4065100000
   36      O       1.0826650000     4.0695440000    -4.5692250000
   37      C       1.2158480000     4.5464070000    -5.9162070000
   38      H       1.4940660000     5.6117290000    -5.8330640000
   39      H       0.2617360000     4.4362960000    -6.4701680000
   40      H       2.0001080000     3.9812940000    -6.4592930000
   41      H       0.8787390000     3.2860990000     1.3064860000
   42      H      -0.9141940000    -9.1436230000    -0.0007380000
   43      H       0.7694240000    -9.1494410000    -0.6267350000
   44      H      -1.0122720000    -1.4431750000     0.3763530000
 ----------------------------------------------------------------

   11   -2755.3374655519      8.84e-07  Convergence criterion met
 Total energy in the final basis set =    -2755.3374655519
        RIMP2         total energy =     -2760.4286127170 a.u.

                    Orbital Energies (a.u.)
 --------------------------------------------------------------

 Alpha MOs
 -- Occupied --
-92.0152 -91.9967 -91.9821 -91.9588 -26.3429 -20.6150 -20.5887 -20.5873
-20.5616 -11.4096 -11.3818 -11.3100 -11.3097 -11.3077 -11.3040 -11.2983
-11.2938 -11.2889 -11.2858 -11.2851 -11.2847 -11.2826 -11.2824 -11.2745
-11.2737 -11.2598 -11.2592 -11.2504 -11.2386  -9.0140  -8.9969  -8.9843
 -8.9614  -6.6948  -6.6942  -6.6936  -6.6779  -6.6772  -6.6761  -6.6654
 -6.6645  -6.6632  -6.6426  -6.6417  -6.6407  -1.6600  -1.4675  -1.4119
 -1.4092  -1.3702  -1.2300  -1.2033  -1.1748  -1.1377  -1.1009  -1.0477
 -1.0448  -1.0239  -1.0047  -0.9988  -0.9632  -0.9594  -0.9493  -0.9406
 -0.8953  -0.8699  -0.8657  -0.8101  -0.8018  -0.7898  -0.7845  -0.7684
 -0.7566  -0.7381  -0.7249  -0.7141  -0.6990  -0.6891  -0.6848  -0.6808
 -0.6740  -0.6625  -0.6572  -0.6491  -0.6386  -0.6316  -0.6207  -0.6153
 -0.6122  -0.5987  -0.5932  -0.5766  -0.5715  -0.5650  -0.5597  -0.5532
 -0.5483  -0.5350  -0.5313  -0.5298  -0.5145  -0.5090  -0.5084  -0.5013
 -0.4854  -0.4815  -0.4774  -0.4740  -0.4717  -0.4677  -0.4600  -0.4471
 -0.4328  -0.3947  -0.3871  -0.3713  -0.3509  -0.2989  -0.2889  -0.2178

          Ground-State Mulliken Net Atomic Charges

     Atom                 Charge (a.u.)
  ----------------------------------------
      1 C                    -0.070366
      2 C                    -0.256480
      3 S                    -0.133953
      4 C                    -0.046675
      5 H                     0.193864
      6 C                    -0.051725
      7 C                     0.226218
      8 C                     0.226814
      9 C                    -0.073759
     10 C                    -0.048637
     11 O                    -0.333802
     12 O                    -0.344014
     13 C                    -0.083092
     14 H                     0.121216
     15 H                     0.092334
     16 H                     0.093035
     17 C                    -0.088453
     18 H                     0.124535
     19 H                     0.092861
     20 H                     0.090124
     21 C                    -0.278489
     22 S                    -0.089675
     23 C                     0.109393
     24 H                     0.201790
     25 C                    -0.077861
     26 S                     0.068196
     27 C                    -0.198867
     28 C                     0.036087
     29 C                    -0.123030
     30 S                    -0.006441
     31 C                    -0.161613
     32 C                     0.405389
     33 F                    -0.207197
     34 C                     0.444878
     35 O                    -0.460420
     36 O                    -0.300650
     37 C                    -0.058561
     38 H                     0.121485
     39 H                     0.095089
     40 H                     0.095200
     41 H                     0.218410
     42 H                     0.117850
     43 H                     0.115672
     44 H                     0.203321
  ----------------------------------------
  Sum of atomic charges =     0.000000

                    Cartesian Multipole Moments
 -----------------------------------------------------------------
    Charge (ESU x 10^10)
                 0.0000
    Dipole Moment (Debye)
         X       0.0966      Y       1.9871      Z       3.4648
       Tot       3.9953
    Quadrupole Moments (Debye-Ang)
        XX    -200.8739     XY       2.5133     YY    -173.0881
        XZ      -1.5206     YZ     -11.3124     ZZ    -187.7146

 Total job time:  355.75s(wall), 10976.75s(cpu)
        *  Thank you very much for using Q-Chem.  Have a nice day.  *
