 Q-Chem 5.4, Q-Chem, Inc., Pleasanton, CA (2021)
 Q-Chem 5.4.0 for Intel X86 EM64T Linux

User input:
--------------------------------------------------------------
$molecule
0 1
C	0.313191	-8.517702	-0.070009
C	-0.694746	-7.641575	0.305494
S	1.762350	-7.638634	-0.614924
C	-0.340973	-6.264785	0.176768
H	-1.677747	-7.966081	0.669571
C	1.000069	-6.072714	-0.309600
C	1.520060	-4.787049	-0.525372
C	-1.196466	-5.162801	0.463825
C	-0.677639	-3.874817	0.243888
C	0.665815	-3.683952	-0.240312
O	-2.426678	-5.499772	0.941626
O	2.755460	-4.459055	-1.006468
C	3.853913	-5.329063	-0.761666
H	4.765607	-4.755694	-1.016135
H	3.822182	-6.238095	-1.401368
H	3.901833	-5.637262	0.305161
C	-3.502489	-4.572261	0.868342
H	-4.416005	-5.139743	1.128551
H	-3.613841	-4.153131	-0.154712
H	-3.386756	-3.739531	1.595605
C	1.015430	-2.306654	-0.369957
S	-1.445922	-2.306501	0.537898
C	0.000000	-1.435185	0.000000
H	1.998088	-1.978138	-0.731088
C	0.000000	0.000000	0.000000
S	0.000474	0.904764	1.507541
C	-0.000295	2.477305	0.718873
C	0.000752	0.904447	-1.067872
C	-0.001560	2.294593	-0.686410
S	0.003602	0.660872	-2.805516
C	-0.001928	2.412546	-3.054530
C	-0.004381	3.120854	-1.862551
F	-0.009185	4.457503	-1.819088
C	-0.000038	2.860570	-4.456084
O	0.007944	2.090724	-5.406510
O	-0.007501	4.211092	-4.569225
C	-0.002278	4.706177	-5.916207
H	-0.009265	5.807207	-5.833064
H	-0.895381	4.352875	-6.470168
H	0.901521	4.363301	-6.459293
H	-0.001708	3.401562	1.306486
H	0.000738	-9.143623	-0.914194
H	0.626735	-9.149441	0.769424
H	-0.376353	-1.443175	-1.012272
$end

$rem
JOBTYPE		SP
EXCHANGE	HF
CORRELATION	pRIMP2
BASIS		cc-pvtz
METHOD		rimp2
AUX_BASIS	rimp2-cc-pvtz
SOLVENT_METHOD	PCM
PURECART	11111
SYMMETRY	false
MEM_TOTAL	110000
SCF_CONVERGENCE = 6
THRESH=10
GUI = 2
$end

$solvent
dielectric 4.90
$end
--------------------------------------------------------------

             Standard Nuclear Orientation (Angstroms)
    I     Atom           X                Y                Z
 ----------------------------------------------------------------
    1      C       0.3131910000    -8.5177020000    -0.0700090000
    2      C      -0.6947460000    -7.6415750000     0.3054940000
    3      S       1.7623500000    -7.6386340000    -0.6149240000
    4      C      -0.3409730000    -6.2647850000     0.1767680000
    5      H      -1.6777470000    -7.9660810000     0.6695710000
    6      C       1.0000690000    -6.0727140000    -0.3096000000
    7      C       1.5200600000    -4.7870490000    -0.5253720000
    8      C      -1.1964660000    -5.1628010000     0.4638250000
    9      C      -0.6776390000    -3.8748170000     0.2438880000
   10      C       0.6658150000    -3.6839520000    -0.2403120000
   11      O      -2.4266780000    -5.4997720000     0.9416260000
   12      O       2.7554600000    -4.4590550000    -1.0064680000
   13      C       3.8539130000    -5.3290630000    -0.7616660000
   14      H       4.7656070000    -4.7556940000    -1.0161350000
   15      H       3.8221820000    -6.2380950000    -1.4013680000
   16      H       3.9018330000    -5.6372620000     0.3051610000
   17      C      -3.5024890000    -4.5722610000     0.8683420000
   18      H      -4.4160050000    -5.1397430000     1.1285510000
   19      H      -3.6138410000    -4.1531310000    -0.1547120000
   20      H      -3.3867560000    -3.7395310000     1.5956050000
   21      C       1.0154300000    -2.3066540000    -0.3699570000
   22      S      -1.4459220000    -2.3065010000     0.5378980000
   23      C       0.0000000000    -1.4351850000     0.0000000000
   24      H       1.9980880000    -1.9781380000    -0.7310880000
   25      C       0.0000000000     0.0000000000     0.0000000000
   26      S       0.0004740000     0.9047640000     1.5075410000
   27      C      -0.0002950000     2.4773050000     0.7188730000
   28      C       0.0007520000     0.9044470000    -1.0678720000
   29      C      -0.0015600000     2.2945930000    -0.6864100000
   30      S       0.0036020000     0.6608720000    -2.8055160000
   31      C      -0.0019280000     2.4125460000    -3.0545300000
   32      C      -0.0043810000     3.1208540000    -1.8625510000
   33      F      -0.0091850000     4.4575030000    -1.8190880000
   34      C      -0.0000380000     2.8605700000    -4.4560840000
   35      O       0.0079440000     2.0907240000    -5.4065100000
   36      O      -0.0075010000     4.2110920000    -4.5692250000
   37      C      -0.0022780000     4.7061770000    -5.9162070000
   38      H      -0.0092650000     5.8072070000    -5.8330640000
   39      H      -0.8953810000     4.3528750000    -6.4701680000
   40      H       0.9015210000     4.3633010000    -6.4592930000
   41      H      -0.0017080000     3.4015620000     1.3064860000
   42      H       0.0007380000    -9.1436230000    -0.9141940000
   43      H       0.6267350000    -9.1494410000     0.7694240000
   44      H      -0.3763530000    -1.4431750000    -1.0122720000
 ----------------------------------------------------------------

   11   -2755.3481242715      6.92e-07  Convergence criterion met
 Total energy in the final basis set =    -2755.3481242715
        RIMP2         total energy =     -2760.4358250105 a.u.

                    Orbital Energies (a.u.)
 --------------------------------------------------------------

 Alpha MOs
 -- Occupied --
-92.0121 -91.9999 -91.9784 -91.9581 -26.3444 -20.6153 -20.5871 -20.5871
-20.5618 -11.4101 -11.3839 -11.3100 -11.3090 -11.3075 -11.3035 -11.3023
-11.2987 -11.2892 -11.2852 -11.2846 -11.2831 -11.2827 -11.2810 -11.2728
-11.2720 -11.2582 -11.2576 -11.2496 -11.2369  -9.0109  -9.0001  -8.9806
 -8.9607  -6.6917  -6.6911  -6.6906  -6.6811  -6.6804  -6.6792  -6.6617
 -6.6608  -6.6595  -6.6419  -6.6410  -6.6400  -1.6614  -1.4678  -1.4105
 -1.4089  -1.3705  -1.2296  -1.2027  -1.1735  -1.1370  -1.1009  -1.0465
 -1.0458  -1.0234  -1.0037  -0.9973  -0.9624  -0.9592  -0.9486  -0.9412
 -0.8935  -0.8712  -0.8648  -0.8122  -0.7971  -0.7900  -0.7846  -0.7680
 -0.7587  -0.7357  -0.7262  -0.7099  -0.7010  -0.6952  -0.6853  -0.6799
 -0.6744  -0.6651  -0.6557  -0.6486  -0.6354  -0.6306  -0.6200  -0.6149
 -0.6119  -0.5990  -0.5923  -0.5776  -0.5707  -0.5654  -0.5580  -0.5532
 -0.5478  -0.5323  -0.5316  -0.5263  -0.5130  -0.5085  -0.5072  -0.5018
 -0.4853  -0.4815  -0.4762  -0.4746  -0.4701  -0.4683  -0.4612  -0.4465
 -0.4239  -0.4001  -0.3855  -0.3701  -0.3505  -0.3018  -0.2895  -0.2207

          Ground-State Mulliken Net Atomic Charges

     Atom                 Charge (a.u.)
  ----------------------------------------
      1 C                    -0.070275
      2 C                    -0.259561
      3 S                    -0.135396
      4 C                    -0.044079
      5 H                     0.193342
      6 C                    -0.052615
      7 C                     0.226370
      8 C                     0.226616
      9 C                    -0.078225
     10 C                    -0.060834
     11 O                    -0.335028
     12 O                    -0.343102
     13 C                    -0.082754
     14 H                     0.120151
     15 H                     0.092220
     16 H                     0.092574
     17 C                    -0.086626
     18 H                     0.123174
     19 H                     0.092874
     20 H                     0.090199
     21 C                    -0.239677
     22 S                    -0.070648
     23 C                     0.060101
     24 H                     0.207439
     25 C                    -0.087028
     26 S                     0.089236
     27 C                    -0.182122
     28 C                     0.018529
     29 C                    -0.112744
     30 S                     0.001595
     31 C                    -0.157997
     32 C                     0.398291
     33 F                    -0.205900
     34 C                     0.444638
     35 O                    -0.461093
     36 O                    -0.300693
     37 C                    -0.058638
     38 H                     0.121532
     39 H                     0.095262
     40 H                     0.095180
     41 H                     0.217440
     42 H                     0.117368
     43 H                     0.114942
     44 H                     0.185961
  ----------------------------------------
  Sum of atomic charges =     0.000000

                    Cartesian Multipole Moments
 -----------------------------------------------------------------
    Charge (ESU x 10^10)
                -0.0000
    Dipole Moment (Debye)
         X      -0.3168      Y       2.8642      Z       2.4646
       Tot       3.7919
    Quadrupole Moments (Debye-Ang)
        XX    -183.3214     XY       3.6482     YY    -174.5402
        XZ      -0.2804     YZ      -9.0503     ZZ    -206.4746

 Total job time:  330.04s(wall), 10579.15s(cpu)
        *  Thank you very much for using Q-Chem.  Have a nice day.  *
