 Q-Chem 5.4, Q-Chem, Inc., Pleasanton, CA (2021)
 Q-Chem 5.4.0 for Intel X86 EM64T Linux

User input:
--------------------------------------------------------------
$molecule
0 1
C	0.270358	-8.517702	-0.172904
C	-0.548363	-7.641575	0.524688
S	1.445750	-7.638634	-1.180599
C	-0.259951	-6.264785	0.282727
H	-1.347559	-7.966081	1.203014
C	0.833868	-6.072714	-0.632972
C	1.248701	-4.787049	-1.013580
C	-0.965673	-5.162801	0.845068
C	-0.553357	-3.874817	0.460946
C	0.543470	-3.683952	-0.453541
O	-1.958276	-5.499772	1.714812
O	2.245053	-4.459055	-1.888193
C	3.360989	-5.329063	-2.033848
H	4.130667	-4.755694	-2.584788
H	3.112380	-6.238095	-2.624118
H	3.770895	-5.637262	-1.047748
C	-2.994272	-4.572261	2.013896
H	-3.763700	-5.139743	2.570853
H	-3.448815	-4.153131	1.090625
H	-2.636780	-3.739531	2.657717
C	0.827659	-2.306654	-0.694943
S	-1.174750	-2.306501	0.999993
C	0.000000	-1.435185	0.000000
H	1.627541	-1.978138	-1.370385
C	0.000000	0.000000	0.000000
S	0.693394	0.581209	1.507541
C	1.897536	1.592607	0.718873
C	0.693330	0.580791	-1.067872
C	1.756758	1.476132	-0.686410
S	0.508573	0.422041	-2.805516
C	1.846879	1.552232	-3.054530
C	2.387897	2.009402	-1.862551
F	3.408741	2.872264	-1.819088
C	2.191300	1.838768	-4.456084
O	1.606694	1.337806	-5.406510
O	3.221062	2.712584	-4.569225
C	3.603677	3.026817	-5.916207
H	4.442623	3.739898	-5.833064
H	2.758956	3.483875	-6.470168
H	3.921969	2.114070	-6.459293
H	2.604650	2.187790	1.306486
H	-0.311979	-9.143623	-0.859314
H	0.852097	-9.149441	0.508666
H	-0.699874	-1.443175	-0.822504
$end

$rem
JOBTYPE		SP
EXCHANGE	HF
CORRELATION	pRIMP2
BASIS		cc-pvtz
METHOD		rimp2
AUX_BASIS	rimp2-cc-pvtz
SOLVENT_METHOD	PCM
PURECART	11111
SYMMETRY	false
MEM_TOTAL	110000
SCF_CONVERGENCE = 6
THRESH=10
GUI = 2
$end

$solvent
dielectric 4.90
$end
--------------------------------------------------------------

             Standard Nuclear Orientation (Angstroms)
    I     Atom           X                Y                Z
 ----------------------------------------------------------------
    1      C       0.2703580000    -8.5177020000    -0.1729040000
    2      C      -0.5483630000    -7.6415750000     0.5246880000
    3      S       1.4457500000    -7.6386340000    -1.1805990000
    4      C      -0.2599510000    -6.2647850000     0.2827270000
    5      H      -1.3475590000    -7.9660810000     1.2030140000
    6      C       0.8338680000    -6.0727140000    -0.6329720000
    7      C       1.2487010000    -4.7870490000    -1.0135800000
    8      C      -0.9656730000    -5.1628010000     0.8450680000
    9      C      -0.5533570000    -3.8748170000     0.4609460000
   10      C       0.5434700000    -3.6839520000    -0.4535410000
   11      O      -1.9582760000    -5.4997720000     1.7148120000
   12      O       2.2450530000    -4.4590550000    -1.8881930000
   13      C       3.3609890000    -5.3290630000    -2.0338480000
   14      H       4.1306670000    -4.7556940000    -2.5847880000
   15      H       3.1123800000    -6.2380950000    -2.6241180000
   16      H       3.7708950000    -5.6372620000    -1.0477480000
   17      C      -2.9942720000    -4.5722610000     2.0138960000
   18      H      -3.7637000000    -5.1397430000     2.5708530000
   19      H      -3.4488150000    -4.1531310000     1.0906250000
   20      H      -2.6367800000    -3.7395310000     2.6577170000
   21      C       0.8276590000    -2.3066540000    -0.6949430000
   22      S      -1.1747500000    -2.3065010000     0.9999930000
   23      C       0.0000000000    -1.4351850000     0.0000000000
   24      H       1.6275410000    -1.9781380000    -1.3703850000
   25      C       0.0000000000     0.0000000000     0.0000000000
   26      S       0.6933940000     0.5812090000     1.5075410000
   27      C       1.8975360000     1.5926070000     0.7188730000
   28      C       0.6933300000     0.5807910000    -1.0678720000
   29      C       1.7567580000     1.4761320000    -0.6864100000
   30      S       0.5085730000     0.4220410000    -2.8055160000
   31      C       1.8468790000     1.5522320000    -3.0545300000
   32      C       2.3878970000     2.0094020000    -1.8625510000
   33      F       3.4087410000     2.8722640000    -1.8190880000
   34      C       2.1913000000     1.8387680000    -4.4560840000
   35      O       1.6066940000     1.3378060000    -5.4065100000
   36      O       3.2210620000     2.7125840000    -4.5692250000
   37      C       3.6036770000     3.0268170000    -5.9162070000
   38      H       4.4426230000     3.7398980000    -5.8330640000
   39      H       2.7589560000     3.4838750000    -6.4701680000
   40      H       3.9219690000     2.1140700000    -6.4592930000
   41      H       2.6046500000     2.1877900000     1.3064860000
   42      H      -0.3119790000    -9.1436230000    -0.8593140000
   43      H       0.8520970000    -9.1494410000     0.5086660000
   44      H      -0.6998740000    -1.4431750000    -0.8225040000
 ----------------------------------------------------------------

   11   -2755.3003580283      7.15e-07  Convergence criterion met
 Total energy in the final basis set =    -2755.3003580283
        RIMP2         total energy =     -2760.4000589445 a.u.

                    Orbital Energies (a.u.)
 --------------------------------------------------------------

 Alpha MOs
 -- Occupied --
-92.0091 -92.0082 -91.9743 -91.9561 -26.3469 -20.6164 -20.5863 -20.5849
-20.5629 -11.4115 -11.3875 -11.3274 -11.3162 -11.3080 -11.3038 -11.3003
-11.2899 -11.2891 -11.2832 -11.2821 -11.2811 -11.2810 -11.2755 -11.2710
-11.2699 -11.2562 -11.2537 -11.2476 -11.2322  -9.0088  -9.0080  -8.9765
 -8.9588  -6.6895  -6.6890  -6.6885  -6.6883  -6.6882  -6.6872  -6.6576
 -6.6568  -6.6556  -6.6400  -6.6391  -6.6381  -1.6638  -1.4689  -1.4087
 -1.4076  -1.3717  -1.2377  -1.2007  -1.1716  -1.1403  -1.0994  -1.0497
 -1.0439  -1.0265  -1.0013  -0.9954  -0.9646  -0.9591  -0.9480  -0.9417
 -0.8918  -0.8727  -0.8610  -0.8137  -0.7993  -0.7909  -0.7820  -0.7656
 -0.7597  -0.7352  -0.7285  -0.7124  -0.7003  -0.6936  -0.6864  -0.6800
 -0.6755  -0.6653  -0.6548  -0.6475  -0.6373  -0.6300  -0.6181  -0.6145
 -0.6114  -0.6019  -0.5924  -0.5771  -0.5727  -0.5663  -0.5566  -0.5560
 -0.5409  -0.5323  -0.5261  -0.5244  -0.5125  -0.5098  -0.5062  -0.5000
 -0.4863  -0.4816  -0.4770  -0.4747  -0.4686  -0.4649  -0.4572  -0.4442
 -0.4228  -0.3973  -0.3813  -0.3676  -0.3531  -0.3080  -0.2872  -0.2161

          Ground-State Mulliken Net Atomic Charges

     Atom                 Charge (a.u.)
  ----------------------------------------
      1 C                    -0.069320
      2 C                    -0.273369
      3 S                    -0.140249
      4 C                    -0.042004
      5 H                     0.191691
      6 C                    -0.054072
      7 C                     0.225619
      8 C                     0.224524
      9 C                    -0.070266
     10 C                    -0.050970
     11 O                    -0.335695
     12 O                    -0.343664
     13 C                    -0.082823
     14 H                     0.119557
     15 H                     0.092446
     16 H                     0.092398
     17 C                    -0.086995
     18 H                     0.123392
     19 H                     0.091747
     20 H                     0.089726
     21 C                    -0.284098
     22 S                    -0.099885
     23 C                     0.088354
     24 H                     0.210178
     25 C                    -0.148947
     26 S                     0.099755
     27 C                    -0.143128
     28 C                    -0.002314
     29 C                    -0.095707
     30 S                     0.048734
     31 C                    -0.153433
     32 C                     0.401961
     33 F                    -0.204321
     34 C                     0.447579
     35 O                    -0.461303
     36 O                    -0.301144
     37 C                    -0.058162
     38 H                     0.121728
     39 H                     0.095454
     40 H                     0.095457
     41 H                     0.218558
     42 H                     0.115569
     43 H                     0.113083
     44 H                     0.194361
  ----------------------------------------
  Sum of atomic charges =     0.000000

                    Cartesian Multipole Moments
 -----------------------------------------------------------------
    Charge (ESU x 10^10)
                 0.0000
    Dipole Moment (Debye)
         X       2.5593      Y       3.5045      Z       2.0563
       Tot       4.8021
    Quadrupole Moments (Debye-Ang)
        XX    -175.6212     XY      11.4563     YY    -190.7170
        XZ     -11.8462     YZ      -7.1139     ZZ    -202.6653

 Total job time:  324.16s(wall), 10566.28s(cpu)
        *  Thank you very much for using Q-Chem.  Have a nice day.  *
