 Q-Chem 5.4, Q-Chem, Inc., Pleasanton, CA (2021)
 Q-Chem 5.4.0 for Intel X86 EM64T Linux

User input:
--------------------------------------------------------------
$molecule
0 1
C	0.194917	-8.517702	-0.254945
C	-0.335839	-7.641575	0.680596
S	0.954772	-7.638634	-1.603876
C	-0.147576	-6.264785	0.354585
H	-0.854836	-7.966081	1.591356
C	0.567090	-6.072714	-0.879999
C	0.826731	-4.787049	-1.379534
C	-0.618405	-5.162801	1.124384
C	-0.362333	-3.874817	0.622407
C	0.355575	-3.683952	-0.612067
O	-1.253677	-5.499772	2.281166
O	1.463859	-4.459055	-2.542174
C	2.462679	-5.329063	-3.060718
H	2.997507	-4.755694	-3.841678
H	2.027179	-6.238095	-3.530361
H	3.185132	-5.637262	-2.274283
C	-2.124902	-4.572261	2.916545
H	-2.657438	-5.139743	3.703073
H	-2.867810	-4.153131	2.204417
H	-1.568770	-3.739531	3.399269
C	0.540061	-2.306654	-0.936109
S	-0.761887	-2.306501	1.341474
C	0.000000	-1.435185	0.000000
H	1.060690	-1.978138	-1.844392
C	0.000000	0.000000	0.000000
S	0.000474	0.904764	1.507541
C	-0.000295	2.477305	0.718873
C	0.000752	0.904447	-1.067872
C	-0.001560	2.294593	-0.686410
S	0.003602	0.660872	-2.805516
C	-0.001928	2.412546	-3.054530
C	-0.004381	3.120854	-1.862551
F	-0.009185	4.457503	-1.819088
C	-0.000038	2.860570	-4.456084
O	0.007944	2.090724	-5.406510
O	-0.007501	4.211092	-4.569225
C	-0.002278	4.706177	-5.916207
H	-0.009265	5.807207	-5.833064
H	-0.895381	4.352875	-6.470168
H	0.901521	4.363301	-6.459293
H	-0.001708	3.401562	1.306486
H	-0.587067	-9.143623	-0.700788
H	0.974683	-9.149441	0.186556
H	-0.938979	-1.443175	-0.533530
$end

$rem
JOBTYPE		SP
EXCHANGE	HF
CORRELATION	pRIMP2
BASIS		cc-pvtz
METHOD		rimp2
AUX_BASIS	rimp2-cc-pvtz
SOLVENT_METHOD	PCM
PURECART	11111
SYMMETRY	false
MEM_TOTAL	110000
SCF_CONVERGENCE = 6
THRESH=10
GUI = 2
$end

$solvent
dielectric 4.90
$end
--------------------------------------------------------------

             Standard Nuclear Orientation (Angstroms)
    I     Atom           X                Y                Z
 ----------------------------------------------------------------
    1      C       0.1949170000    -8.5177020000    -0.2549450000
    2      C      -0.3358390000    -7.6415750000     0.6805960000
    3      S       0.9547720000    -7.6386340000    -1.6038760000
    4      C      -0.1475760000    -6.2647850000     0.3545850000
    5      H      -0.8548360000    -7.9660810000     1.5913560000
    6      C       0.5670900000    -6.0727140000    -0.8799990000
    7      C       0.8267310000    -4.7870490000    -1.3795340000
    8      C      -0.6184050000    -5.1628010000     1.1243840000
    9      C      -0.3623330000    -3.8748170000     0.6224070000
   10      C       0.3555750000    -3.6839520000    -0.6120670000
   11      O      -1.2536770000    -5.4997720000     2.2811660000
   12      O       1.4638590000    -4.4590550000    -2.5421740000
   13      C       2.4626790000    -5.3290630000    -3.0607180000
   14      H       2.9975070000    -4.7556940000    -3.8416780000
   15      H       2.0271790000    -6.2380950000    -3.5303610000
   16      H       3.1851320000    -5.6372620000    -2.2742830000
   17      C      -2.1249020000    -4.5722610000     2.9165450000
   18      H      -2.6574380000    -5.1397430000     3.7030730000
   19      H      -2.8678100000    -4.1531310000     2.2044170000
   20      H      -1.5687700000    -3.7395310000     3.3992690000
   21      C       0.5400610000    -2.3066540000    -0.9361090000
   22      S      -0.7618870000    -2.3065010000     1.3414740000
   23      C       0.0000000000    -1.4351850000     0.0000000000
   24      H       1.0606900000    -1.9781380000    -1.8443920000
   25      C       0.0000000000     0.0000000000     0.0000000000
   26      S       0.0004740000     0.9047640000     1.5075410000
   27      C      -0.0002950000     2.4773050000     0.7188730000
   28      C       0.0007520000     0.9044470000    -1.0678720000
   29      C      -0.0015600000     2.2945930000    -0.6864100000
   30      S       0.0036020000     0.6608720000    -2.8055160000
   31      C      -0.0019280000     2.4125460000    -3.0545300000
   32      C      -0.0043810000     3.1208540000    -1.8625510000
   33      F      -0.0091850000     4.4575030000    -1.8190880000
   34      C      -0.0000380000     2.8605700000    -4.4560840000
   35      O       0.0079440000     2.0907240000    -5.4065100000
   36      O      -0.0075010000     4.2110920000    -4.5692250000
   37      C      -0.0022780000     4.7061770000    -5.9162070000
   38      H      -0.0092650000     5.8072070000    -5.8330640000
   39      H      -0.8953810000     4.3528750000    -6.4701680000
   40      H       0.9015210000     4.3633010000    -6.4592930000
   41      H      -0.0017080000     3.4015620000     1.3064860000
   42      H      -0.5870670000    -9.1436230000    -0.7007880000
   43      H       0.9746830000    -9.1494410000     0.1865560000
   44      H      -0.9389790000    -1.4431750000    -0.5335300000
 ----------------------------------------------------------------

   11   -2755.3449848255      8.15e-07  Convergence criterion met
 Total energy in the final basis set =    -2755.3449848255
        RIMP2         total energy =     -2760.4349783916 a.u.

                    Orbital Energies (a.u.)
 --------------------------------------------------------------

 Alpha MOs
 -- Occupied --
-92.0148 -91.9974 -91.9822 -91.9592 -26.3431 -20.6151 -20.5889 -20.5874
-20.5616 -11.4097 -11.3821 -11.3107 -11.3104 -11.3098 -11.3010 -11.2984
-11.2935 -11.2890 -11.2858 -11.2852 -11.2849 -11.2841 -11.2827 -11.2743
-11.2735 -11.2604 -11.2595 -11.2508 -11.2395  -9.0134  -8.9975  -8.9843
 -8.9617  -6.6942  -6.6936  -6.6931  -6.6786  -6.6779  -6.6767  -6.6655
 -6.6646  -6.6633  -6.6430  -6.6420  -6.6410  -1.6602  -1.4676  -1.4121
 -1.4093  -1.3702  -1.2300  -1.2033  -1.1751  -1.1372  -1.1016  -1.0479
 -1.0454  -1.0232  -1.0046  -0.9991  -0.9626  -0.9596  -0.9495  -0.9409
 -0.8954  -0.8712  -0.8647  -0.8091  -0.8009  -0.7900  -0.7848  -0.7689
 -0.7574  -0.7374  -0.7251  -0.7095  -0.6999  -0.6952  -0.6849  -0.6813
 -0.6741  -0.6647  -0.6569  -0.6493  -0.6383  -0.6312  -0.6211  -0.6156
 -0.6125  -0.5984  -0.5934  -0.5769  -0.5719  -0.5654  -0.5601  -0.5521
 -0.5486  -0.5356  -0.5314  -0.5278  -0.5136  -0.5094  -0.5085  -0.5025
 -0.4855  -0.4825  -0.4764  -0.4740  -0.4697  -0.4668  -0.4631  -0.4482
 -0.4319  -0.3953  -0.3870  -0.3715  -0.3503  -0.2989  -0.2895  -0.2192

          Ground-State Mulliken Net Atomic Charges

     Atom                 Charge (a.u.)
  ----------------------------------------
      1 C                    -0.070618
      2 C                    -0.253027
      3 S                    -0.132781
      4 C                    -0.048205
      5 H                     0.194200
      6 C                    -0.052026
      7 C                     0.223690
      8 C                     0.232319
      9 C                    -0.077656
     10 C                    -0.031686
     11 O                    -0.334105
     12 O                    -0.342858
     13 C                    -0.083055
     14 H                     0.120880
     15 H                     0.092318
     16 H                     0.092746
     17 C                    -0.088015
     18 H                     0.124494
     19 H                     0.093356
     20 H                     0.090353
     21 C                    -0.315264
     22 S                    -0.090085
     23 C                     0.110693
     24 H                     0.204977
     25 C                    -0.046050
     26 S                     0.081075
     27 C                    -0.211495
     28 C                     0.013613
     29 C                    -0.114868
     30 S                    -0.007329
     31 C                    -0.156990
     32 C                     0.399239
     33 F                    -0.207110
     34 C                     0.444825
     35 O                    -0.460477
     36 O                    -0.300433
     37 C                    -0.058704
     38 H                     0.121550
     39 H                     0.095208
     40 H                     0.095143
     41 H                     0.216794
     42 H                     0.118375
     43 H                     0.115968
     44 H                     0.201019
  ----------------------------------------
  Sum of atomic charges =     0.000000

                    Cartesian Multipole Moments
 -----------------------------------------------------------------
    Charge (ESU x 10^10)
                 0.0000
    Dipole Moment (Debye)
         X      -0.6703      Y       1.7587      Z       2.9310
       Tot       3.4833
    Quadrupole Moments (Debye-Ang)
        XX    -191.2718     XY       2.1476     YY    -170.8171
        XZ      -9.3301     YZ     -11.4226     ZZ    -198.4338

 Total job time:  354.83s(wall), 11187.99s(cpu)
        *  Thank you very much for using Q-Chem.  Have a nice day.  *
