 Q-Chem 5.4, Q-Chem, Inc., Pleasanton, CA (2021)
 Q-Chem 5.4.0 for Intel X86 EM64T Linux

User input:
--------------------------------------------------------------
$molecule
0 1
C	-0.236226	-8.517702	0.217225
C	0.448921	-7.641575	-0.611939
S	-1.218777	-7.638634	1.413715
C	0.206907	-6.264785	-0.323572
H	1.118185	-7.966081	-1.418739
C	-0.711285	-6.072714	0.768156
C	-1.053725	-4.787049	1.215016
C	0.804258	-5.162801	-0.999917
C	0.464908	-3.874817	-0.550033
C	-0.456457	-3.683952	0.541024
O	1.630752	-5.499772	-2.028811
O	-1.883064	-4.459055	2.249357
C	-2.956754	-5.329063	2.586579
H	-3.619069	-4.755694	3.262802
H	-2.609423	-6.238095	3.124711
H	-3.531667	-5.637262	1.686639
C	2.599073	-4.572261	-2.503251
H	3.260097	-5.139743	-3.185356
H	3.207034	-4.153131	-1.672937
H	2.135214	-3.739531	-3.075213
C	-0.694410	-2.306654	0.828107
S	0.983256	-2.306501	-1.188794
C	0.000000	-1.435185	0.000000
H	-1.364851	-1.978138	1.632185
C	0.000000	0.000000	0.000000
S	0.000474	0.904764	1.507541
C	-0.000295	2.477305	0.718873
C	0.000752	0.904447	-1.067872
C	-0.001560	2.294593	-0.686410
S	0.003602	0.660872	-2.805516
C	-0.001928	2.412546	-3.054530
C	-0.004381	3.120854	-1.862551
F	-0.009185	4.457503	-1.819088
C	-0.000038	2.860570	-4.456084
O	0.007944	2.090724	-5.406510
O	-0.007501	4.211092	-4.569225
C	-0.002278	4.706177	-5.916207
H	-0.009265	5.807207	-5.833064
H	-0.895381	4.352875	-6.470168
H	0.901521	4.363301	-6.459293
H	-0.001708	3.401562	1.306486
H	0.456457	-9.143623	0.792084
H	-0.927480	-9.149441	-0.352973
H	0.832067	-1.443175	0.688477
$end

$rem
JOBTYPE		SP
EXCHANGE	HF
CORRELATION	pRIMP2
BASIS		cc-pvtz
METHOD		rimp2
AUX_BASIS	rimp2-cc-pvtz
SOLVENT_METHOD	PCM
PURECART	11111
SYMMETRY	false
MEM_TOTAL	110000
SCF_CONVERGENCE = 6
THRESH=10
GUI = 2
$end

$solvent
dielectric 4.90
$end
--------------------------------------------------------------

             Standard Nuclear Orientation (Angstroms)
    I     Atom           X                Y                Z
 ----------------------------------------------------------------
    1      C      -0.2362260000    -8.5177020000     0.2172250000
    2      C       0.4489210000    -7.6415750000    -0.6119390000
    3      S      -1.2187770000    -7.6386340000     1.4137150000
    4      C       0.2069070000    -6.2647850000    -0.3235720000
    5      H       1.1181850000    -7.9660810000    -1.4187390000
    6      C      -0.7112850000    -6.0727140000     0.7681560000
    7      C      -1.0537250000    -4.7870490000     1.2150160000
    8      C       0.8042580000    -5.1628010000    -0.9999170000
    9      C       0.4649080000    -3.8748170000    -0.5500330000
   10      C      -0.4564570000    -3.6839520000     0.5410240000
   11      O       1.6307520000    -5.4997720000    -2.0288110000
   12      O      -1.8830640000    -4.4590550000     2.2493570000
   13      C      -2.9567540000    -5.3290630000     2.5865790000
   14      H      -3.6190690000    -4.7556940000     3.2628020000
   15      H      -2.6094230000    -6.2380950000     3.1247110000
   16      H      -3.5316670000    -5.6372620000     1.6866390000
   17      C       2.5990730000    -4.5722610000    -2.5032510000
   18      H       3.2600970000    -5.1397430000    -3.1853560000
   19      H       3.2070340000    -4.1531310000    -1.6729370000
   20      H       2.1352140000    -3.7395310000    -3.0752130000
   21      C      -0.6944100000    -2.3066540000     0.8281070000
   22      S       0.9832560000    -2.3065010000    -1.1887940000
   23      C       0.0000000000    -1.4351850000     0.0000000000
   24      H      -1.3648510000    -1.9781380000     1.6321850000
   25      C       0.0000000000     0.0000000000     0.0000000000
   26      S       0.0004740000     0.9047640000     1.5075410000
   27      C      -0.0002950000     2.4773050000     0.7188730000
   28      C       0.0007520000     0.9044470000    -1.0678720000
   29      C      -0.0015600000     2.2945930000    -0.6864100000
   30      S       0.0036020000     0.6608720000    -2.8055160000
   31      C      -0.0019280000     2.4125460000    -3.0545300000
   32      C      -0.0043810000     3.1208540000    -1.8625510000
   33      F      -0.0091850000     4.4575030000    -1.8190880000
   34      C      -0.0000380000     2.8605700000    -4.4560840000
   35      O       0.0079440000     2.0907240000    -5.4065100000
   36      O      -0.0075010000     4.2110920000    -4.5692250000
   37      C      -0.0022780000     4.7061770000    -5.9162070000
   38      H      -0.0092650000     5.8072070000    -5.8330640000
   39      H      -0.8953810000     4.3528750000    -6.4701680000
   40      H       0.9015210000     4.3633010000    -6.4592930000
   41      H      -0.0017080000     3.4015620000     1.3064860000
   42      H       0.4564570000    -9.1436230000     0.7920840000
   43      H      -0.9274800000    -9.1494410000    -0.3529730000
   44      H       0.8320670000    -1.4431750000     0.6884770000
 ----------------------------------------------------------------

   11   -2755.3446057478      8.36e-07  Convergence criterion met
 Total energy in the final basis set =    -2755.3446057478
        RIMP2         total energy =     -2760.4329324452 a.u.

                    Orbital Energies (a.u.)
 --------------------------------------------------------------

 Alpha MOs
 -- Occupied --
-92.0152 -91.9950 -91.9802 -91.9589 -26.3424 -20.6146 -20.5878 -20.5876
-20.5611 -11.4090 -11.3810 -11.3097 -11.3089 -11.3073 -11.3056 -11.2972
-11.2943 -11.2887 -11.2845 -11.2844 -11.2841 -11.2833 -11.2823 -11.2739
-11.2732 -11.2594 -11.2589 -11.2504 -11.2383  -9.0139  -8.9952  -8.9823
 -8.9615  -6.6948  -6.6942  -6.6936  -6.6762  -6.6755  -6.6743  -6.6634
 -6.6626  -6.6613  -6.6428  -6.6418  -6.6408  -1.6595  -1.4670  -1.4110
 -1.4096  -1.3697  -1.2291  -1.2029  -1.1746  -1.1372  -1.1006  -1.0475
 -1.0437  -1.0241  -1.0044  -0.9978  -0.9631  -0.9575  -0.9489  -0.9414
 -0.8942  -0.8684  -0.8666  -0.8147  -0.7943  -0.7899  -0.7849  -0.7691
 -0.7563  -0.7378  -0.7245  -0.7147  -0.6971  -0.6885  -0.6844  -0.6805
 -0.6736  -0.6619  -0.6565  -0.6491  -0.6376  -0.6305  -0.6207  -0.6156
 -0.6109  -0.5991  -0.5928  -0.5766  -0.5713  -0.5645  -0.5589  -0.5581
 -0.5504  -0.5326  -0.5311  -0.5256  -0.5134  -0.5102  -0.5079  -0.5017
 -0.4850  -0.4792  -0.4764  -0.4736  -0.4693  -0.4679  -0.4611  -0.4476
 -0.4295  -0.3960  -0.3863  -0.3708  -0.3513  -0.2982  -0.2893  -0.2194

          Ground-State Mulliken Net Atomic Charges

     Atom                 Charge (a.u.)
  ----------------------------------------
      1 C                    -0.070276
      2 C                    -0.255725
      3 S                    -0.134467
      4 C                    -0.048289
      5 H                     0.194094
      6 C                    -0.050837
      7 C                     0.221691
      8 C                     0.230181
      9 C                    -0.074373
     10 C                    -0.029846
     11 O                    -0.334509
     12 O                    -0.343651
     13 C                    -0.082828
     14 H                     0.120034
     15 H                     0.092146
     16 H                     0.093280
     17 C                    -0.087805
     18 H                     0.123964
     19 H                     0.092528
     20 H                     0.091760
     21 C                    -0.310588
     22 S                    -0.087248
     23 C                     0.149753
     24 H                     0.202232
     25 C                    -0.089875
     26 S                     0.081444
     27 C                    -0.194987
     28 C                     0.001348
     29 C                    -0.118382
     30 S                     0.000481
     31 C                    -0.157841
     32 C                     0.401740
     33 F                    -0.208079
     34 C                     0.443327
     35 O                    -0.460105
     36 O                    -0.300494
     37 C                    -0.058790
     38 H                     0.121322
     39 H                     0.095205
     40 H                     0.095024
     41 H                     0.217640
     42 H                     0.117815
     43 H                     0.115719
     44 H                     0.196266
  ----------------------------------------
  Sum of atomic charges =     0.000000

                    Cartesian Multipole Moments
 -----------------------------------------------------------------
    Charge (ESU x 10^10)
                -0.0000
    Dipole Moment (Debye)
         X       0.6146      Y       2.1569      Z       3.2613
       Tot       3.9581
    Quadrupole Moments (Debye-Ang)
        XX    -188.2213     XY      -2.6621     YY    -172.5777
        XZ      -8.2827     YZ      -4.2942     ZZ    -201.5768

 Total job time:  323.49s(wall), 10570.22s(cpu)
        *  Thank you very much for using Q-Chem.  Have a nice day.  *
